/*--------------------------------*- C++ -*----------------------------------*\
| =========                 |                                                 |
| \\      /  F ield         | OpenFOAM: The Open Source CFD Toolbox           |
|  \\    /   O peration     | Version:  2506                                  |
|   \\  /    A nd           | Website:  www.openfoam.com                      |
|    \\/     M anipulation  |                                                 |
\*---------------------------------------------------------------------------*/
FoamFile
{
    version     2.0;
    format      ascii;
    arch        "LSB;label=32;scalar=64";
    class       volScalarField;
    location    "10";
    object      C;
}
// * * * * * * * * * * * * * * * * * * * * * * * * * * * * * * * * * * * * * //

dimensions      [0 0 0 0 0 0 0];

internalField   nonuniform List<scalar> 
800
(
1.26998429e-06
2.76720532e-06
-1.01653632e-05
2.80076632e-05
0.000245467228
0.00057187736
0.000656737713
5.65293023e-05
-0.0015055704
-0.00384290042
-0.00584296838
-0.00509608483
-0.000605454282
0.00743352703
0.0189161675
0.032031379
0.0442009521
0.0527999253
0.0557029453
0.0580554977
-9.26503219e-06
-2.29564792e-05
1.55692345e-05
0.000124556249
-9.29239362e-05
-0.00129751467
-0.00376507637
-0.00705735078
-0.0101807614
-0.0121172272
-0.0124493918
-0.0111991644
-0.00736038857
0.000846217837
0.0135709024
0.0288809714
0.0436122389
0.0545698213
0.0590041669
0.0556649845
4.89383964e-05
7.74050701e-05
0.000181338598
0.000186863442
-0.000785382166
-0.00344451216
-0.00733870741
-0.0110230836
-0.013198237
-0.0139764238
-0.0145310431
-0.015761554
-0.0157506834
-0.0107796933
0.00111768741
0.0183663377
0.0368414739
0.0521139486
0.0604259497
0.0597318345
-0.000238840131
-0.000306636114
-0.000226681258
-0.000244721047
-0.00133180616
-0.0042247113
-0.00835529215
-0.0120768942
-0.0137511799
-0.0110005437
-0.00568777652
-0.0113620889
-0.0166291558
-0.0178069902
-0.00995674126
0.00696605111
0.0281815309
0.0478406407
0.0608846714
0.0635236176
0.00129227655
0.00149883053
0.00164648824
0.00170749752
0.00101829735
-0.0010169941
-0.00416632981
-0.00742838067
-0.00981887141
-0.0101705955
-0.00907282127
-0.00968603244
-0.0130136393
-0.0149655776
-0.00985044176
0.00448320638
0.0246433446
0.0451597739
0.060830152
0.0659446618
-0.00743297001
-0.00774857402
-0.00770070759
-0.00753940196
-0.0075170918
-0.0078648124
-0.0086185354
-0.00957675763
-0.0104914164
-0.0110327985
-0.0114307874
-0.0103149921
-0.00672443881
-0.000128642739
0.00968222539
0.0222812106
0.0365936914
0.0510085014
0.0632303972
0.0679962502
0.0508833258
0.056669966
0.0604515013
0.06239598
0.0633324244
0.0638317523
0.0642031584
0.0646014272
0.0650933946
0.0657086936
0.0664520182
0.0672807117
0.0681838479
0.069124489
0.0700891558
0.0710111351
0.0717937367
0.0722960659
0.0724015849
0.0705497405
0.157900226
0.153393563
0.144416647
0.13613591
0.130672345
0.128199837
0.127938124
0.128831237
0.13002125
0.131043956
0.131734547
0.132236595
0.131927529
0.129872373
0.12537238
0.117942707
0.107771342
0.0954727299
0.0828687798
0.0722555355
0.148808341
0.135710775
0.121694359
0.113563195
0.112208869
0.115939966
0.121655046
0.12651837
0.129293164
0.130204406
0.129776671
0.127886116
0.1295794
0.134736982
0.138171416
0.132945983
0.118260003
0.100486056
0.0837595175
0.0711408394
0.149059426
0.133313257
0.120738689
0.115705837
0.117268384
0.122768629
0.128523567
0.1321339
0.133612048
0.134309105
0.135310967
0.136731377
0.138507464
0.139509978
0.136149302
0.125855847
0.11019339
0.0936318835
0.0787830432
0.067951711
0.147639405
0.133771323
0.123682072
0.118251593
0.116835601
0.11833907
0.121541604
0.125268834
0.128511695
0.130553059
0.130944291
0.129663625
0.127271791
0.122668886
0.115200087
0.104960497
0.0932012394
0.081669912
0.0718442375
0.0657249232
0.150076854
0.142248821
0.136659121
0.13195799
0.127818376
0.124074504
0.120398327
0.116814602
0.113348893
0.110039117
0.106850786
0.103536651
0.0993623653
0.0944789862
0.089051941
0.0835123031
0.0784637444
0.0746734391
0.0731992784
0.07516791
0.156987091
0.162171682
0.171532132
0.179570042
0.184929583
0.187915596
0.189320076
0.189436971
0.188605881
0.187598865
0.186325397
0.184897962
0.183380078
0.181762216
0.179864871
0.17720055
0.17270133
0.164130367
0.147273841
0.11811034
0.160997515
0.172212247
0.186002505
0.194217731
0.19674024
0.19640486
0.195462917
0.194947372
0.194906274
0.194299534
0.19323811
0.191682194
0.189856305
0.188241676
0.187412505
0.187782358
0.189435052
0.191771998
0.192688179
0.188035333
0.162234825
0.17595392
0.190841915
0.198053253
0.198851642
0.197870752
0.197670513
0.198280194
0.198851453
0.199015321
0.198699801
0.197542973
0.194968517
0.191113568
0.187010721
0.183962979
0.182873928
0.184117614
0.18721325
0.18988447
0.161688343
0.176036513
0.191147754
0.198838825
0.19939048
0.198226554
0.198175699
0.198628268
0.198808646
0.199037151
0.199773906
0.201135469
0.201369029
0.198659931
0.19327765
0.187631717
0.183763234
0.182886592
0.185298355
0.190079411
0.159578308
0.174007043
0.188877548
0.197888457
0.199911039
0.198865103
0.198073112
0.198151745
0.197727168
0.194546711
0.195359642
0.197503152
0.201326766
0.202636395
0.198435549
0.191546609
0.185337624
0.182205592
0.182973677
0.187115163
0.156201373
0.170739668
0.185123561
0.195340689
0.199756571
0.200102499
0.199036018
0.198247677
0.197739948
0.19635533
0.195967915
0.195209905
0.19884749
0.203121129
0.201291662
0.194808372
0.187399815
0.182527946
0.181725957
0.185004433
0.149691423
0.165053384
0.179257368
0.190232487
0.196966894
0.199828366
0.200181016
0.199533895
0.198768623
0.198087428
0.197474423
0.198092814
0.200443004
0.202113385
0.200496618
0.195096502
0.188170668
0.182860343
0.181011676
0.183477065
0.148790383
0.161982964
0.174558998
0.184862607
0.192540814
0.197617989
0.200523773
0.201942665
0.202544116
0.202778925
0.203032822
0.202877847
0.201691177
0.199182167
0.195338868
0.190616268
0.185890816
0.182256362
0.180649383
0.182391309
0.125969327
0.139223476
0.151579749
0.161221689
0.168328234
0.173486663
0.17720036
0.179817058
0.181578469
0.182662696
0.183170234
0.183266038
0.183073167
0.182630723
0.181993136
0.181268368
0.180617551
0.180263879
0.180343174
0.181942542
0.675671004
0.55818133
0.41660117
0.311287843
0.250135636
0.218357348
0.201492636
0.191344165
0.184331605
0.179150251
0.175439484
0.173193987
0.172527295
0.172963245
0.174295351
0.176220605
0.178246078
0.179824206
0.180730919
0.182322365
0.733948323
0.380549534
0.145187672
0.0881926486
0.104465663
0.123214745
0.12848131
0.124693503
0.117574015
0.11041902
0.104858503
0.101819565
0.101992137
0.108735062
0.122427931
0.141036793
0.160029096
0.174144011
0.180623338
0.183197481
0.674457503
0.283271762
0.103033786
0.134030734
0.165540127
0.157470714
0.135941032
0.116032316
0.100430289
0.088874329
0.0813256555
0.0789551248
0.0800001965
0.0849803937
0.0988839508
0.123786577
0.152392755
0.172798667
0.181175931
0.18422369
0.665199742
0.217907377
0.0881655409
0.162546692
0.162769099
0.132631767
0.111112667
0.0958453627
0.0828193189
0.072414866
0.0661190719
0.0649129333
0.0731638762
0.0800730063
0.0974354467
0.126027047
0.15555919
0.17473775
0.182327672
0.18544326
0.653035463
0.177536519
0.0893100361
0.180923373
0.155847342
0.126229319
0.110535244
0.0954112179
0.0813335422
0.0714497798
0.0673657358
0.069450574
0.0770923872
0.08903159
0.110590762
0.138406676
0.163077218
0.17777446
0.183757948
0.18691554
0.656852026
0.171996738
0.0874750577
0.182216411
0.157112767
0.129499165
0.113882939
0.100024491
0.0882127997
0.0809046587
0.0790111831
0.0827835279
0.0922835331
0.108031135
0.129770772
0.152691887
0.170566893
0.180691551
0.185409693
0.188869716
0.684289233
0.191670605
0.0722568525
0.180206179
0.166408581
0.137756876
0.123332114
0.112274171
0.103126412
0.0977995129
0.0978325489
0.103199482
0.114004969
0.129637647
0.147730224
0.164359393
0.176316226
0.183202384
0.187086834
0.189670444
0.742406478
0.231674543
0.0470566255
0.172126559
0.179229703
0.149990026
0.135058464
0.126237336
0.120792363
0.117479987
0.118657461
0.12443804
0.134463124
0.147371143
0.160789727
0.17221497
0.180268806
0.185194559
0.187534707
0.185230531
0.804493416
0.287183895
0.0216026516
0.154658045
0.190126801
0.162930415
0.146667698
0.136771394
0.134300131
0.133569758
0.13526687
0.140642588
0.148955284
0.158894079
0.168681753
0.176834041
0.182712864
0.186270481
0.186526317
0.180494759
0.841931908
0.330365634
0.00770010955
0.136538797
0.194663469
0.171474627
0.156334789
0.143734067
0.13994867
0.142212676
0.144949841
0.14999822
0.157017513
0.164990893
0.172685196
0.17913981
0.183842909
0.186222485
0.18486785
0.182039543
0.85284982
0.342341012
0.00328533573
0.128179125
0.195716887
0.173922701
0.16031601
0.149201443
0.142108387
0.143635198
0.148674681
0.15399265
0.160532501
0.16758512
0.174309032
0.179968232
0.183943799
0.185225211
0.18288231
0.184537564
0.858516285
0.343698026
0.000595541072
0.123558222
0.196204022
0.174825073
0.160463724
0.151262923
0.145486216
0.144973282
0.149769984
0.155593051
0.162023843
0.168668382
0.174897567
0.180030626
0.183230193
0.183367887
0.181151761
0.183166397
0.868674667
0.354416634
-0.00312673795
0.113545482
0.195960694
0.176987378
0.161786755
0.15302607
0.148845516
0.148568583
0.15208252
0.157553321
0.163602783
0.16974503
0.175327132
0.179569078
0.181566625
0.181045559
0.180528535
0.180940239
0.884504454
0.378905941
-0.00695127909
0.094066565
0.193400015
0.181412812
0.165862114
0.156971634
0.153499333
0.153599414
0.156295483
0.160755533
0.165864333
0.170918457
0.175191903
0.178001467
0.179096268
0.179590072
0.181607177
0.18080412
0.903320875
0.416761805
-0.00640906127
0.0629209839
0.183807619
0.186870344
0.17306433
0.163690824
0.159381519
0.159251156
0.161068201
0.164214931
0.167872719
0.17139493
0.174294877
0.176428519
0.17827942
0.180791582
0.183253421
0.180637358
0.921779781
0.466977053
0.00771531682
0.020062718
0.157555789
0.18764144
0.180948856
0.174236536
0.167852785
0.165673362
0.166289104
0.167799071
0.16994749
0.17228035
0.174620625
0.176990184
0.179437511
0.181402638
0.181099995
0.178052898
0.937757387
0.533501662
0.0571770776
-0.0237081296
0.0994433729
0.167928038
0.175277116
0.181583412
0.181131274
0.180037374
0.179473018
0.179900232
0.180880738
0.182291835
0.183920661
0.18548693
0.186501662
0.186247017
0.184275189
0.181626821
0.955225526
0.642160506
0.20364601
-0.00644799082
0.0111226823
0.0959333156
0.11597171
0.132985081
0.144799627
0.152201418
0.156369489
0.15851593
0.158959106
0.157724982
0.154663102
0.149511014
0.142152402
0.132963726
0.123050864
0.114649963
0.980022701
0.847207754
0.604259873
0.340578604
0.116996147
-0.0400896154
-0.00644469827
-0.0111626042
-0.00809374645
-0.00700682918
-0.00585591546
-0.00513117163
-0.00473789884
-0.00467691676
-0.00489249453
-0.00528727955
-0.0056501968
-0.00563653389
-0.00492016738
-0.0036306484
)
;

boundaryField
{
    inner_wall
    {
        type            zeroGradient;
    }
    outer_wall
    {
        type            zeroGradient;
    }
    top
    {
        type            codedFixedValue;
        value           nonuniform List<scalar> 
20
(
1
1
1
1
1
0
0
0
0
0
0
0
0
0
0
0
0
0
0
0
)
;
        name            topInletC;
        code            #{
            const vectorField& Cf = patch().Cf();
            scalarField& field = *this;
            const scalar Rin  = 0.038;
            const scalar Rout = 0.04035;
            const scalar Rcut = Rin + 0.25 * (Rout - Rin);  // 1/4 of gap

            forAll(Cf, i)
            {
                scalar r = sqrt(sqr(Cf[i].x()) + sqr(Cf[i].y()));
                field[i] = (r <= Rcut) ? 1.0 : 0.0;
            }
        #};
    }
    bottom
    {
        type            inletOutlet;
        inletValue      uniform 0;
        value           nonuniform List<scalar> 
20
(
0
0
0
0
0
0
0
0
0
0
0
-0.00509608483
-0.000605454282
0.00743352703
0.0189161675
0.032031379
0.0442009521
0.0527999253
0.0557029453
0.0580554977
)
;
    }
    front
    {
        type            wedge;
    }
    back
    {
        type            wedge;
    }
}


// ************************************************************************* //
