/*--------------------------------*- C++ -*----------------------------------*\
| =========                 |                                                 |
| \\      /  F ield         | OpenFOAM: The Open Source CFD Toolbox           |
|  \\    /   O peration     | Version:  2506                                  |
|   \\  /    A nd           | Website:  www.openfoam.com                      |
|    \\/     M anipulation  |                                                 |
\*---------------------------------------------------------------------------*/
FoamFile
{
    version     2.0;
    format      ascii;
    arch        "LSB;label=32;scalar=64";
    class       volScalarField;
    location    "10";
    object      p;
}
// * * * * * * * * * * * * * * * * * * * * * * * * * * * * * * * * * * * * * //

dimensions      [0 2 -2 0 0 0 0];

internalField   nonuniform List<scalar> 
800
(
-0.00043766637
-0.000233329493
-0.000255570573
-0.000249290886
-0.000238344977
-0.000222280143
-0.000199950735
-0.000174338817
-0.000150471037
-0.000126921541
-9.9529421e-05
-6.93371641e-05
-3.71481351e-05
-3.67185107e-06
2.74605186e-05
5.26886859e-05
7.03568009e-05
8.04712081e-05
8.45584588e-05
8.53708804e-05
-0.000841302962
-0.000450422636
-0.000427309786
-0.000406910755
-0.000400645357
-0.000397780455
-0.000391271875
-0.000375493431
-0.000345785427
-0.000299754653
-0.000240517589
-0.000175788984
-0.00011088229
-4.95940758e-05
4.71146811e-06
4.87715659e-05
7.98225412e-05
9.67006426e-05
0.000101348575
9.84409118e-05
-0.00103618182
-0.000596563152
-0.000529480055
-0.000488272142
-0.000481962103
-0.000487220058
-0.000491051625
-0.000484402739
-0.00046161106
-0.000421516721
-0.000366985593
-0.000302010942
-0.00022961253
-0.000151524766
-7.03763541e-05
8.16830402e-06
7.49239947e-05
0.000118226837
0.000134530117
0.000132137914
-0.00127701107
-0.000801859951
-0.000689725901
-0.000611611569
-0.000580636434
-0.000567453995
-0.000556574953
-0.000539752136
-0.000512910002
-0.000474994835
-0.000426244185
-0.000368140232
-0.000299559934
-0.000218027289
-0.000122112633
-1.53558669e-05
8.99493554e-05
0.00017231631
0.000214737397
0.000221388106
-0.00147390919
-0.000965940684
-0.000798203901
-0.000678085002
-0.000610522777
-0.000574877765
-0.00055198041
-0.000531574103
-0.000508234752
-0.000478235814
-0.0004383186
-0.000384230989
-0.000311373917
-0.000214824481
-9.14052393e-05
5.72588734e-05
0.000218852802
0.000370921274
0.000461737564
0.000489971025
-0.00159672123
-0.00104809312
-0.000805534153
-0.000625833153
-0.000505818269
-0.000435064021
-0.000393934317
-0.000365087681
-0.000337685326
-0.000304659518
-0.000258502644
-0.00018705553
-8.29078143e-05
5.90347767e-05
0.000239488858
0.000452184287
0.000680857665
0.000896878575
0.00105254772
0.00111841599
-0.00185994865
-0.00125122947
-0.000916320229
-0.000672520345
-0.000487456282
-0.000356515811
-0.000264889649
-0.000191193036
-0.000116371296
-2.6932625e-05
8.64455566e-05
0.000227635156
0.000404102319
0.000613647639
0.000854901248
0.00111732051
0.00138364072
0.00162775142
0.0018101119
0.00190115311
-0.00167303033
-0.00110618197
-0.000838076392
-0.000652238876
-0.000528852008
-0.000454135168
-0.000406574895
-0.000367172344
-0.00032486117
-0.000272253755
-0.000202151487
-0.00010957044
6.88576341e-06
0.000154104368
0.000330707965
0.000532255099
0.000746945091
0.000950175575
0.00109748108
0.00116008182
-0.00154493894
-0.00103972227
-0.000868816001
-0.000762730684
-0.000705931679
-0.000675298754
-0.000652424842
-0.000626054568
-0.000590409326
-0.000541813341
-0.0004776607
-0.000395211319
-0.00029116438
-0.000165463505
-1.93469187e-05
0.000142716393
0.000315303293
0.000459392941
0.000546597463
0.000573007732
-0.00123058212
-0.000777514226
-0.000691134822
-0.000634398141
-0.00061626347
-0.000608381781
-0.000595458033
-0.000570976525
-0.000531150905
-0.000474290516
-0.00040022407
-0.000310635304
-0.000207890553
-9.33186831e-05
2.9539896e-05
0.000152008275
0.000261797882
0.000341729433
0.000378473634
0.000379721919
-0.000771691857
-0.000387105392
-0.000325393742
-0.000306464239
-0.000307135712
-0.000312271712
-0.000310816652
-0.000296021828
-0.000264122956
-0.000213788989
-0.000145649972
-6.21399957e-05
3.1871604e-05
0.000130443805
0.000225702334
0.000307698969
0.000367543458
0.000400159503
0.000407094051
0.000398598162
-0.000398512556
-7.32562935e-05
-8.6744948e-06
2.33832977e-06
-2.53023922e-06
-9.51002077e-06
-1.01853555e-05
1.00914162e-06
2.73942942e-05
6.99695738e-05
0.000126678951
0.000192055762
0.000261322482
0.000327637169
0.000383803886
0.000424418014
0.000447562845
0.000454995128
0.000451440199
0.000443472109
-0.000553034624
-0.000214118957
-0.000145828672
-0.000127680707
-0.000122914626
-0.000116079946
-9.9000054e-05
-6.6710288e-05
-1.96411746e-05
4.2694807e-05
0.00011643282
0.000195736198
0.000273692616
0.000343152545
0.000398063958
0.000435072464
0.000454537105
0.000460118319
0.000457160557
0.000451220683
-0.00109141621
-0.000692736362
-0.000618476997
-0.000579070788
-0.000552303651
-0.000519030641
-0.00046885462
-0.000398638502
-0.000308637834
-0.00020453384
-9.07786387e-05
2.67215356e-05
0.000140876441
0.000243981934
0.000328873636
0.000390667562
0.000428387593
0.000445257792
0.000447383001
0.000442303558
-0.00163535196
-0.0011755264
-0.00108009059
-0.00099717554
-0.000934769471
-0.00087089533
-0.000792004948
-0.000694926369
-0.00058108877
-0.000453525321
-0.000316066021
-0.000172948932
-2.95611061e-05
0.000106993856
0.000228027286
0.000324720111
0.000391023358
0.000426550364
0.000437020939
0.000432990378
-0.00205191142
-0.00154981683
-0.00139485328
-0.00126675483
-0.00117709943
-0.0010898256
-0.000993252798
-0.000883560822
-0.000760620304
-0.00062600189
-0.000481558237
-0.000329322757
-0.000171888751
-1.37156313e-05
0.000137426376
0.000270002308
0.000371077851
0.000431984105
0.000454913352
0.00045306704
-0.00232732972
-0.00179648354
-0.00158477306
-0.00141789791
-0.00129158859
-0.00118289457
-0.00107539964
-0.00096084888
-0.000836919346
-0.000703594809
-0.000561372785
-0.000410450158
-0.000250892844
-8.33487603e-05
8.82910365e-05
0.000253651432
0.000394499571
0.000488382336
0.000529611331
0.000532947307
-0.00249621419
-0.00193949292
-0.00168454194
-0.0014775274
-0.00131649401
-0.00118501219
-0.00106549931
-0.000947186644
-0.000824562803
-0.00069507643
-0.000557283575
-0.000409934367
-0.000251148466
-7.84390834e-05
0.000108869236
0.000304379698
0.000487464817
0.000626000963
0.000699166043
0.000713833964
-0.0025964369
-0.00201827345
-0.00172581043
-0.00147658619
-0.0012755919
-0.00111477757
-0.000977499062
-0.000850899909
-0.000726445774
-0.000598391782
-0.000462461651
-0.000314792055
-0.000150759786
3.47368344e-05
0.000244410414
0.000474272344
0.000707641611
0.000913196425
0.00103554189
0.00106851908
-0.00264886036
-0.00205127064
-0.00172153653
-0.00142903085
-0.00118482022
-0.000988060265
-0.000825693896
-0.00068368296
-0.000550304817
-0.000415847945
-0.000271683119
-0.000106924329
8.71298797e-05
0.000315964257
0.000579681337
0.000870700328
0.0011707159
0.00144459033
0.00163344957
0.00170572347
-0.00274965049
-0.00212128601
-0.00173526721
-0.00139058257
-0.00108552883
-0.000826634954
-0.00060681541
-0.000411704788
-0.000226655876
-3.88541597e-05
0.000163454515
0.000387999191
0.000640400304
0.000920998612
0.00122544085
0.00154501436
0.00186551575
0.00215846553
0.00237263347
0.00247240934
-0.0027484209
-0.00211728736
-0.00172656713
-0.00137621264
-0.00106574826
-0.000802968211
-0.000582020531
-0.000389730019
-0.000212788351
-3.78856399e-05
0.000148284355
0.000355341427
0.000588608002
0.00084770299
0.0011338128
0.00143860511
0.00174730985
0.00203233415
0.00224188732
0.00233938843
-0.00265029831
-0.00204703526
-0.00170813708
-0.00140354492
-0.00114801382
-0.00094217672
-0.00077435578
-0.000631302273
-0.00050128614
-0.000373933667
-0.00024079253
-9.5274155e-05
7.00184444e-05
0.000265642747
0.000494592195
0.000753380246
0.00102642112
0.00128022892
0.00145618284
0.00151885474
-0.00259213176
-0.00200426108
-0.00169709082
-0.00142574747
-0.0012053942
-0.00103072495
-0.000886120707
-0.000758427581
-0.000637625463
-0.000516302284
-0.000389138116
-0.000252165452
-0.000102442847
6.33564171e-05
0.000247685006
0.000447929665
0.000649665137
0.000830675033
0.000932347464
0.00095846466
-0.00248717005
-0.00191196855
-0.00163323913
-0.00138968515
-0.00119995059
-0.00105142862
-0.000926075662
-0.000811235959
-0.000697618858
-0.000579237435
-0.000452876908
-0.000316911472
-0.000170535406
-1.31657637e-05
0.000154505885
0.000325945142
0.000482955012
0.000599659794
0.000659732
0.000670222605
-0.00233055061
-0.00176540241
-0.00151364214
-0.00128536987
-0.00111842592
-0.000987878873
-0.000878399806
-0.000771747124
-0.000662499969
-0.000545851619
-0.000419971228
-0.000284817337
-0.000142056625
5.93274226e-06
0.000154425923
0.000294283189
0.000411295733
0.000488488327
0.000521736706
0.000523496777
-0.00213487827
-0.00157973197
-0.00133911039
-0.00112459775
-0.000967442614
-0.00084576075
-0.000741786986
-0.000642083613
-0.000538367918
-0.000426488655
-0.000305694697
-0.000177964323
-4.63645349e-05
8.41419694e-05
0.00020659648
0.000312099279
0.000391570598
0.000439331284
0.000457405554
0.000455959075
-0.00193251276
-0.00138431835
-0.0011397642
-0.000928757777
-0.000771047297
-0.000650104188
-0.000548213079
-0.000452970836
-0.000356355557
-0.000254390852
-0.000146688456
-3.55958578e-05
7.47512506e-05
0.000178808218
0.000270346956
0.000343443671
0.000394185833
0.000422375948
0.000431831966
0.000429757732
-0.00176109043
-0.00121188958
-0.000960496487
-0.00074327175
-0.000578954949
-0.000453061122
-0.000349857533
-0.000258170821
-0.000170501272
-8.27006306e-05
6.17226062e-06
9.44822647e-05
0.000178724098
0.00025454522
0.000317849524
0.000365755175
0.00039740571
0.00041423594
0.000419558964
0.000418006776
-0.00163087654
-0.0010748311
-0.000824411976
-0.000599413782
-0.00043008627
-0.000300981362
-0.000197639846
-0.000110179155
-3.1839417e-05
4.15938313e-05
0.000111908144
0.000178805437
0.000240389903
0.00029410284
0.000337697553
0.000369953903
0.000391002569
0.000402257843
0.000406068346
0.000405350133
-0.00151969446
-0.000962568046
-0.000716884875
-0.000492602466
-0.000329014717
-0.000204972032
-0.0001072604
-2.67104627e-05
4.27943485e-05
0.000105077153
0.000162020329
0.000214157738
0.000260922808
0.00030113665
0.000333628623
0.000357777511
0.000373773218
0.000382628034
0.000386013259
0.000385927816
-0.00140313442
-0.000850869072
-0.000617147651
-0.000401522093
-0.000254511272
-0.000143778927
-5.82137519e-05
1.15039382e-05
7.12519534e-05
0.000124383926
0.000172477118
0.000215963752
0.000254605529
0.000287736219
0.000314607729
0.000334772923
0.000348333983
0.000356025393
0.000359166166
0.000359361562
-0.00127632645
-0.000732873084
-0.000512276598
-0.000314929263
-0.000184669956
-9.0806765e-05
-2.01859369e-05
3.66187946e-05
8.53554439e-05
0.000129123028
0.000169317385
0.000206080101
0.000238993895
0.000267341917
0.000290410275
0.000307771066
0.00031947303
0.000326112133
0.000328789772
0.000328944594
-0.00114444688
-0.000610590769
-0.000403685809
-0.000226244926
-0.000111755643
-3.41227648e-05
2.21155026e-05
6.6368938e-05
0.000104160688
0.000138398321
0.000170303084
0.000199951464
0.000226807107
0.000250077616
0.000269034865
0.000283253137
0.000292748825
0.000298010615
0.000299936278
0.000299777785
-0.00101239972
-0.000488047907
-0.000295094908
-0.000135435133
-3.64573704e-05
2.64439261e-05
6.97327125e-05
0.000102681145
0.000130443208
0.000155644678
0.000179355583
0.000201616126
0.000221926922
0.000239572713
0.00025390813
0.000264559502
0.000271527954
0.000275190276
0.000276235259
0.000275701102
-0.000881894884
-0.000367234518
-0.000188560623
-4.60381606e-05
3.72886644e-05
8.63168636e-05
0.00011784783
0.000140772743
0.000159719707
0.000176924584
0.000193188194
0.000208569983
0.000222657205
0.000234878024
0.000244727303
0.000251916658
0.000256443636
0.000258577588
0.000258812388
0.000257974791
-0.000750975418
-0.000247051396
-8.51706781e-05
3.80587786e-05
0.000104641052
0.000139981427
0.000160705693
0.000174909659
0.000186426469
0.000196955744
0.000207064301
0.000216718794
0.00022559148
0.000233257415
0.000239348658
0.000243657104
0.000246175903
0.000247078485
0.000246690589
0.00024564145
-0.000611985353
-0.000122759374
1.43214421e-05
0.000112701407
0.000160286993
0.000182133074
0.000193499597
0.000200899726
0.000206970717
0.000212724896
0.000218422707
0.000223974635
0.000229114027
0.000233533548
0.00023697729
0.000239298594
0.000240472196
0.00024056813
0.000239761748
0.00023857668
-0.000444788857
9.90365963e-06
0.000105808654
0.000169265904
0.000196202119
0.000206568765
0.000211376425
0.000214703376
0.000217811071
0.00022100798
0.000224298096
0.000227547788
0.000230543046
0.000233059837
0.00023493087
0.000236094849
0.000236568788
0.000236356406
0.000235439341
0.00023410703
-0.000163427577
0.000129939438
0.000158506891
0.00017958224
0.000191450048
0.000198827893
0.000204933796
0.000210607244
0.000215790497
0.000220416391
0.000224553914
0.000228300887
0.000231685466
0.000234694004
0.000237336987
0.000239640608
0.000241638801
0.000243376941
0.000244867668
0.000246079891
)
;

boundaryField
{
    inner_wall
    {
        type            zeroGradient;
    }
    outer_wall
    {
        type            zeroGradient;
    }
    top
    {
        type            zeroGradient;
    }
    bottom
    {
        type            fixedValue;
        value           uniform 0;
    }
    front
    {
        type            wedge;
    }
    back
    {
        type            wedge;
    }
}


// ************************************************************************* //
