/*--------------------------------*- C++ -*----------------------------------*\
| =========                 |                                                 |
| \\      /  F ield         | OpenFOAM: The Open Source CFD Toolbox           |
|  \\    /   O peration     | Version:  2506                                  |
|   \\  /    A nd           | Website:  www.openfoam.com                      |
|    \\/     M anipulation  |                                                 |
\*---------------------------------------------------------------------------*/
FoamFile
{
    version     2.0;
    format      ascii;
    arch        "LSB;label=32;scalar=64";
    class       volVectorField;
    location    "10";
    object      U;
}
// * * * * * * * * * * * * * * * * * * * * * * * * * * * * * * * * * * * * * //

dimensions      [0 1 -1 0 0 0 0];

internalField   nonuniform List<vector> 
800
(
(0.00303227595 0.265330311 0.00801616505)
(-0.0012272745 0.119341596 0.0109810316)
(-0.000355295249 0.0498165903 0.0119533917)
(-0.00138663993 0.019894312 0.0119901131)
(-0.00224593633 0.00846706782 0.0118743388)
(-0.00299840753 0.00590805686 0.0116796684)
(-0.00361260487 0.00881203559 0.0113311689)
(-0.0040585138 0.0168549822 0.0106543476)
(-0.00423934484 0.03099398 0.00934814844)
(-0.00380514466 0.0521500195 0.00689853331)
(-0.00300396989 0.0794071461 0.00269113172)
(-0.00220603647 0.106616677 -0.00358675928)
(-0.00147637002 0.120917888 -0.0104433962)
(-0.00094926487 0.125040641 -0.0164014863)
(-0.000568874167 0.120800238 -0.0207223942)
(-0.000252539146 0.109281602 -0.0228352708)
(1.81609034e-05 0.091416055 -0.0223471425)
(0.00019622037 0.0685097654 -0.0191516735)
(0.000203705812 0.0422208614 -0.0134175858)
(5.86127691e-05 0.014189267 -0.00529458474)
(0.0046243447 0.339063349 0.00839158801)
(-0.00195271929 0.214658741 0.0163225941)
(-0.00104251277 0.11837119 0.0195642623)
(-0.00285538237 0.062875942 0.0204525932)
(-0.00424936835 0.0410691242 0.0202326131)
(-0.0055086729 0.041655783 0.0191285471)
(-0.00648941196 0.0557597607 0.01693867)
(-0.0070214395 0.0772244184 0.0133926579)
(-0.0070620327 0.100950491 0.00843732133)
(-0.00662893255 0.12200538 0.00244492747)
(-0.0060330436 0.136599032 -0.00382372758)
(-0.00547654294 0.144685022 -0.00975106225)
(-0.00506611815 0.147599023 -0.01531712)
(-0.00470214076 0.146083231 -0.0202638844)
(-0.0042286115 0.139666622 -0.0240766778)
(-0.00353056119 0.126992663 -0.0259759782)
(-0.00258298098 0.107008076 -0.0251103708)
(-0.00151518363 0.080267897 -0.0209696062)
(-0.000559620888 0.049129767 -0.0138587794)
(-5.43497937e-05 0.0163460555 -0.00488784386)
(0.00441826119 0.347925047 0.00794656912)
(-0.00177118949 0.248840512 0.0175518381)
(-0.000338640146 0.161736382 0.0221412859)
(-0.00152471614 0.10297621 0.0235451308)
(-0.00209666615 0.0758183866 0.0230235878)
(-0.00258978164 0.0733894719 0.0210514472)
(-0.00291909665 0.0857525964 0.0177613984)
(-0.00309468351 0.103872071 0.013349788)
(-0.00321906857 0.121050564 0.00822219324)
(-0.00345588672 0.133846006 0.00284377338)
(-0.00389311573 0.142343952 -0.00261577717)
(-0.0044286333 0.148002009 -0.00829164282)
(-0.00491960769 0.152019062 -0.0142668356)
(-0.00524576814 0.154508034 -0.0203170428)
(-0.00528354415 0.153777258 -0.0258273055)
(-0.00491487274 0.146457974 -0.0297565129)
(-0.00403617875 0.128905897 -0.0307227145)
(-0.00280896996 0.09973343 -0.0273639069)
(-0.00129843251 0.0617513597 -0.0190981662)
(-0.000158970239 0.0204391094 -0.00699359676)
(0.00448089383 0.355423371 0.00800660791)
(-0.0012424458 0.272973191 0.0181013407)
(0.000816830674 0.19859713 0.023296425)
(0.000437974521 0.142626482 0.0250485789)
(0.000582679235 0.110131606 0.0244729637)
(0.000712787543 0.0985760444 0.0222970284)
(0.000793067619 0.100949806 0.0189646227)
(0.000778264151 0.109753462 0.0148760602)
(0.000601228791 0.119548068 0.0103953608)
(0.000228135138 0.127862346 0.00569267529)
(-0.000284124466 0.134612722 0.000648268515)
(-0.00092011958 0.140721935 -0.00499913942)
(-0.00162220894 0.147603219 -0.0113107051)
(-0.0022943711 0.155805393 -0.0181602276)
(-0.00284317616 0.163585101 -0.0250774344)
(-0.00317704763 0.166243052 -0.0311092886)
(-0.0031345149 0.156742781 -0.034717456)
(-0.00266611312 0.12885507 -0.0337590663)
(-0.00164521896 0.0827497104 -0.0259038085)
(-0.000333558864 0.0274836075 -0.0104506798)
(0.00455374525 0.363048198 0.00682942161)
(-0.00100255917 0.295250401 0.0159622611)
(0.00147952757 0.232770899 0.0209352115)
(0.00196478628 0.181794833 0.0227844276)
(0.00271950575 0.146061521 0.0223448695)
(0.00355525966 0.125318758 0.0204017103)
(0.00425549986 0.116267488 0.0174984996)
(0.00475971188 0.114648066 0.0140024914)
(0.00505817073 0.116940343 0.0101574025)
(0.00518003752 0.121087823 0.00605422501)
(0.00510669203 0.126447678 0.00161906058)
(0.00486989772 0.133515054 -0.00331762196)
(0.00446983181 0.143039001 -0.00896333822)
(0.00387902005 0.155457617 -0.0153297956)
(0.00307584585 0.169650203 -0.022086483)
(0.00209175175 0.181645521 -0.0285473926)
(0.000873190738 0.183360321 -0.0335975606)
(-0.000170580645 0.162868117 -0.0353130331)
(-0.000883838345 0.111645836 -0.0302900897)
(-0.00050310062 0.0381113884 -0.0143159405)
(0.00455814576 0.372627833 0.00632429719)
(-0.000653932055 0.323853515 0.013994855)
(0.0027829834 0.278782294 0.017807501)
(0.0051297708 0.240266069 0.0191846329)
(0.0075055826 0.209730354 0.0188145543)
(0.00995272719 0.18721635 0.0173012873)
(0.0122454008 0.171752885 0.0150853539)
(0.014224208 0.161946431 0.0124173022)
(0.0157804385 0.156444436 0.00940631788)
(0.016907997 0.154201231 0.00606958239)
(0.0175322587 0.154699607 0.00236101491)
(0.0177518114 0.159045927 -0.00178231737)
(0.0174743218 0.166993476 -0.00630759335)
(0.0165896875 0.177778212 -0.0110590763)
(0.0150034447 0.190137891 -0.0158032951)
(0.0126934463 0.201824055 -0.0202235127)
(0.00971342575 0.207664392 -0.0238925247)
(0.0063523922 0.195170167 -0.0259853561)
(0.00250164126 0.144892115 -0.0243302231)
(-0.000315730668 0.0527707651 -0.0137084792)
(0.0050181028 0.385289253 0.000732551473)
(0.0018530879 0.361462703 0.00119441967)
(0.00722994179 0.339097029 0.000978998027)
(0.0126569109 0.318913173 0.000550820184)
(0.0175986746 0.301329905 9.4718503e-05)
(0.022187544 0.286461889 -0.000310684709)
(0.026301744 0.274195666 -0.00065058103)
(0.0297859161 0.264315284 -0.000940148399)
(0.0325358779 0.256572258 -0.00119955898)
(0.0344766052 0.250717812 -0.00145143993)
(0.0356143965 0.246499509 -0.00171357541)
(0.0358277171 0.243260206 -0.0019826014)
(0.0350395229 0.240759621 -0.00223068998)
(0.033114802 0.238525543 -0.00244067057)
(0.0299749127 0.236468285 -0.00257182892)
(0.0256440744 0.234421737 -0.00258109846)
(0.0202613629 0.230757179 -0.00243807878)
(0.0140231811 0.216548065 -0.0021284)
(0.00704593498 0.167746817 -0.00162466263)
(0.000734352444 0.0651069748 -0.000762155809)
(0.00464144938 0.375872657 -0.00633603988)
(0.0002056093 0.332743311 -0.0149962009)
(0.00437099828 0.292118393 -0.020028559)
(0.00775133635 0.257279077 -0.022272479)
(0.0107984949 0.230060569 -0.0223808049)
(0.0136139213 0.210476488 -0.0210414416)
(0.0160786052 0.197337194 -0.0188119026)
(0.0180355966 0.189069575 -0.0160513837)
(0.0194104428 0.184246728 -0.0129608179)
(0.0202414064 0.181805922 -0.00963877012)
(0.0205356616 0.181072923 -0.00611657313)
(0.020259977 0.181714391 -0.00237010688)
(0.0193210535 0.183918236 0.00169661311)
(0.0178154628 0.18852303 0.00606303301)
(0.0157352409 0.195141316 0.0106191975)
(0.0130787784 0.202322318 0.0151540645)
(0.00988703622 0.205337144 0.0192739515)
(0.00641311222 0.1916582 0.0221677243)
(0.00252655217 0.141782468 0.021560865)
(-0.000297299609 0.0516028078 0.0124323847)
(0.00470228378 0.363490412 -0.00914707262)
(-0.000374086025 0.296032519 -0.0211425996)
(0.00246997952 0.236203251 -0.0270601475)
(0.00341604756 0.191873004 -0.0285783119)
(0.0042277242 0.164995872 -0.027199074)
(0.00481764985 0.152350772 -0.0242027091)
(0.00521721044 0.148940734 -0.020355664)
(0.00540532235 0.150357617 -0.0160538967)
(0.00541288158 0.153613484 -0.0115015801)
(0.00526181429 0.157152438 -0.00678442368)
(0.00490266796 0.160629976 -0.00193694443)
(0.00430352882 0.164730597 0.00296599513)
(0.00354651979 0.169665548 0.00794086751)
(0.00265102629 0.175602712 0.013260735)
(0.00164218923 0.181902305 0.018974458)
(0.000516644004 0.185706979 0.024706373)
(-0.000414486959 0.180389632 0.0294509534)
(-0.00101207969 0.155649003 0.0311921274)
(-0.00128548428 0.104932894 0.0267818443)
(-0.00055073426 0.035599285 0.0125935901)
(0.00455279933 0.352119115 -0.0114342696)
(-0.00142919169 0.264885926 -0.0238320397)
(-1.7722195e-05 0.195730398 -0.0285908009)
(-0.00131527397 0.154805956 -0.0287739095)
(-0.0022031247 0.138484837 -0.0266302596)
(-0.00298436597 0.137301033 -0.023344603)
(-0.00377532917 0.143106958 -0.0194581835)
(-0.0044906545 0.150866257 -0.0152230875)
(-0.0051477291 0.157968087 -0.0107326194)
(-0.00575111631 0.163399126 -0.00595660654)
(-0.0062893041 0.167141816 -0.000794630435)
(-0.0067812021 0.169565127 0.00479138537)
(-0.00716861816 0.17122016 0.010552464)
(-0.00739820901 0.171780989 0.0162797574)
(-0.00734608598 0.169592961 0.0216516857)
(-0.00692041431 0.161630774 0.0260113916)
(-0.00582821706 0.143880964 0.0281964943)
(-0.00422748545 0.113218198 0.0265580701)
(-0.00228056239 0.0708734971 0.0196600541)
(-0.000369655702 0.0233114486 0.00753439054)
(0.00425724588 0.340762613 -0.00968096601)
(-0.00372327393 0.237217632 -0.0182989353)
(-0.00454306891 0.165118752 -0.0209839606)
(-0.00703415261 0.1303445 -0.0205829612)
(-0.00941098132 0.120374666 -0.0188341139)
(-0.0114448227 0.121872581 -0.0162923102)
(-0.0131051995 0.12756314 -0.0131692824)
(-0.0143707089 0.134341054 -0.00960053188)
(-0.0152461472 0.140695624 -0.00571179451)
(-0.0157418929 0.145596281 -0.00162950667)
(-0.0158470818 0.148241426 0.00252319166)
(-0.0155240928 0.148225773 0.00663233885)
(-0.0147427699 0.145899456 0.010608953)
(-0.0134746028 0.140695702 0.014185763)
(-0.0117239803 0.131617664 0.0169479256)
(-0.00951096725 0.117510788 0.0183319631)
(-0.0068907027 0.09761824 0.017703482)
(-0.00414445428 0.0723801476 0.0146174888)
(-0.0016996268 0.0437953524 0.00925839159)
(-0.000153426763 0.0144013764 0.00288826817)
(0.0040889895 0.332856111 -0.00275142348)
(-0.00548706415 0.22045189 -0.00527780931)
(-0.00817477966 0.14908791 -0.00638570307)
(-0.0117491047 0.117512151 -0.00679800828)
(-0.0150478127 0.106881443 -0.00687103576)
(-0.0177737718 0.103284688 -0.00666021584)
(-0.0198031642 0.101307677 -0.00613916515)
(-0.0210814645 0.0995754721 -0.00529440343)
(-0.0215947458 0.0978051787 -0.00413744764)
(-0.0213531496 0.0958987089 -0.00271225766)
(-0.0203949512 0.0937534124 -0.00108514049)
(-0.0188099909 0.0910625823 0.000641751174)
(-0.0166857082 0.0871066553 0.00232054434)
(-0.014103103 0.0814700748 0.00376049327)
(-0.0112113312 0.0738096681 0.00474040792)
(-0.00817804858 0.0639238003 0.00504136845)
(-0.00525254599 0.0518936691 0.00454557964)
(-0.00272465337 0.0381408514 0.00333894857)
(-0.000910283491 0.0232643862 0.0017755957)
(-4.31739448e-05 0.00778482431 0.000387311231)
(0.00415202143 0.335225174 0.00650184341)
(-0.00515025434 0.226573883 0.0109498618)
(-0.00753508007 0.158251834 0.0109828839)
(-0.0109799234 0.129885119 0.00896290894)
(-0.0141762741 0.122794223 0.00617888435)
(-0.0168196874 0.122517425 0.00316755303)
(-0.0187570611 0.1230974 0.00019985506)
(-0.0199270523 0.122798519 -0.00255758047)
(-0.0203467039 0.121135146 -0.00498353105)
(-0.0200546703 0.117676182 -0.00697946588)
(-0.0190545223 0.112381021 -0.00847758809)
(-0.0173988583 0.105322218 -0.00942721983)
(-0.0151795006 0.096612188 -0.00979278261)
(-0.0125356768 0.086414458 -0.00957105311)
(-0.00965978153 0.0749532393 -0.00880158741)
(-0.0067900563 0.0624963158 -0.00757441414)
(-0.00418559051 0.0493101204 -0.00602486423)
(-0.00208750624 0.0356054374 -0.00430744027)
(-0.000679147748 0.0215185621 -0.00255386214)
(-3.47490212e-05 0.00717117296 -0.000837575486)
(0.00435878061 0.344232604 0.0122546017)
(-0.00339498135 0.247395057 0.0226955737)
(-0.00399822357 0.182525491 0.0247554257)
(-0.00653858187 0.155604798 0.0223220671)
(-0.00884445585 0.153376643 0.0179567626)
(-0.0108287772 0.161208544 0.0127944694)
(-0.012441263 0.170518082 0.00734862534)
(-0.0136687824 0.177441476 0.00192813667)
(-0.0144714801 0.180562374 -0.00323937611)
(-0.0147706145 0.180315497 -0.00796470786)
(-0.0145834962 0.176920938 -0.012136023)
(-0.0138914182 0.170305806 -0.0156098286)
(-0.0126902444 0.160269313 -0.0181935322)
(-0.0110113974 0.146618578 -0.0196549064)
(-0.00894321614 0.129349951 -0.0197653255)
(-0.00664560396 0.108824425 -0.0183811545)
(-0.00434681602 0.0858290457 -0.0155459547)
(-0.00231827577 0.0614258362 -0.0115594739)
(-0.000831182307 0.0366202021 -0.00693568516)
(-6.29111655e-05 0.0120546191 -0.0022236119)
(0.00453023505 0.353884672 0.0137644385)
(-0.00168801032 0.271363084 0.0280723132)
(-0.000767988811 0.210433658 0.0324738292)
(-0.00251556271 0.180879233 0.0307515859)
(-0.0039727733 0.175966988 0.0260148563)
(-0.00528447425 0.183232371 0.0199295944)
(-0.00651434479 0.193279766 0.0133794048)
(-0.00762951571 0.201602378 0.00680990511)
(-0.00859505939 0.206998407 0.000417730282)
(-0.00937280593 0.20949579 -0.00572376331)
(-0.00990481098 0.209185648 -0.0115429508)
(-0.010127739 0.205959048 -0.0169274294)
(-0.00996696583 0.199207421 -0.0216442719)
(-0.00935003007 0.187941931 -0.0253061268)
(-0.00823529963 0.17111032 -0.0273835575)
(-0.00665266329 0.148120968 -0.0272992624)
(-0.00474156501 0.119399199 -0.0246330315)
(-0.00276605088 0.0865626844 -0.0193996207)
(-0.00110130947 0.051847306 -0.0122224323)
(-0.000111906477 0.0170507938 -0.00411595011)
(0.0045842855 0.362225675 0.0127008306)
(-0.000870224784 0.293808493 0.0283143831)
(0.00107355573 0.238096268 0.0347976749)
(0.000393263984 0.204774813 0.0347159844)
(-0.000263008888 0.193009693 0.0307232129)
(-0.00107316957 0.194635621 0.0248087173)
(-0.00196243359 0.201403863 0.018154795)
(-0.00288453484 0.208453896 0.0113582078)
(-0.00381340946 0.213980454 0.00464953706)
(-0.00471483279 0.217789573 -0.00194532272)
(-0.00555414207 0.219970322 -0.00845301009)
(-0.00626999039 0.220550807 -0.0148710005)
(-0.00678347923 0.218917857 -0.0210760349)
(-0.0069813656 0.213576469 -0.0267254235)
(-0.00674129047 0.202187481 -0.0311678784)
(-0.00597206996 0.182186158 -0.0334362918)
(-0.00467536265 0.152101705 -0.0324280047)
(-0.0030286788 0.112969173 -0.0273455832)
(-0.00133434014 0.0684019207 -0.0183156927)
(-0.000172201069 0.0225021288 -0.00655609633)
(0.00463028888 0.368989093 0.0105808093)
(-0.000662006357 0.313001987 0.025360116)
(0.00191154201 0.263789616 0.0331569678)
(0.00215083918 0.22870638 0.0350046346)
(0.00223625997 0.209910766 0.0325743874)
(0.00197819892 0.203899657 0.0276662781)
(0.00148874425 0.205095837 0.0215741089)
(0.000822409635 0.208997004 0.0150597254)
(4.53643898e-05 0.213150022 0.0084824477)
(-0.00079607995 0.2167573 0.00193830261)
(-0.00167076268 0.219944395 -0.00463161617)
(-0.00256218992 0.222858618 -0.0113202812)
(-0.0033969321 0.225421794 -0.0181785176)
(-0.00407053456 0.226506139 -0.0250628161)
(-0.00445973889 0.223221297 -0.0314287454)
(-0.00443304273 0.210876909 -0.0361968379)
(-0.00388219909 0.184534327 -0.037765363)
(-0.00295208255 0.142260014 -0.0343186263)
(-0.00149180199 0.0878424078 -0.0246817189)
(-0.000250925765 0.0289624182 -0.00944434003)
(0.00462849944 0.374448416 0.0082829356)
(-0.000623040009 0.328978774 0.0209498793)
(0.00226283449 0.286851278 0.0289381136)
(0.00322169456 0.252806023 0.0322466916)
(0.00391252254 0.229578178 0.0316372925)
(0.00430752416 0.216672839 0.0283098019)
(0.00433844017 0.211372204 0.0233736794)
(0.00407320682 0.21054194 0.0176329919)
(0.00358219975 0.211836317 0.0115630816)
(0.00292378266 0.214034088 0.00537132734)
(0.00214570182 0.216849306 -0.000926810868)
(0.00127245919 0.220418074 -0.0074327099)
(0.000381950341 0.225227705 -0.0143657686)
(-0.000454295908 0.231100826 -0.0217493437)
(-0.0011845253 0.235654357 -0.0291612663)
(-0.00174201632 0.233242127 -0.0356671735)
(-0.00207651855 0.215431671 -0.0397103759)
(-0.00204494599 0.174736233 -0.0389358509)
(-0.00143668462 0.111522043 -0.0304347368)
(-0.000368009251 0.0370392279 -0.0127073615)
(0.00462230854 0.378953574 0.00609944721)
(-0.000702077046 0.342395919 0.0160254933)
(0.00232016559 0.307432776 0.0230805354)
(0.0037620728 0.276810552 0.0269309137)
(0.0050130111 0.252614619 0.0277407911)
(0.0061269358 0.235509642 0.026115704)
(0.00690196877 0.224747569 0.0227838913)
(0.00731486425 0.218824694 0.0183883622)
(0.00741104859 0.216225095 0.0133872419)
(0.00724741325 0.215885525 0.00802662209)
(0.00688156929 0.21736734 0.00234010663)
(0.00637316725 0.220848142 -0.00385877056)
(0.00573119758 0.226853427 -0.0106852848)
(0.00494573702 0.235487624 -0.0179830794)
(0.00398515268 0.244986281 -0.0253223718)
(0.00283820868 0.25049396 -0.0320464322)
(0.0015107138 0.242810074 -0.0371568699)
(0.000312311493 0.208898242 -0.0387419034)
(-0.000695205333 0.14029397 -0.0331192915)
(-0.000476886936 0.0476181672 -0.0156461292)
(0.00457465893 0.383067475 0.00462838133)
(-0.000840816442 0.354778053 0.0117864612)
(0.0023804055 0.32746615 0.0168542292)
(0.00435533133 0.302645371 0.0199192599)
(0.006418157 0.281442029 0.0210039401)
(0.00858136121 0.264480789 0.0203518829)
(0.0105827895 0.25180553 0.0183231883)
(0.0122724846 0.243018407 0.0152673805)
(0.013598722 0.237535299 0.0114558963)
(0.0145365614 0.234828045 0.00705856525)
(0.0150256507 0.234662624 0.00215338301)
(0.0151048172 0.237756203 -0.00314435482)
(0.0147709009 0.244031171 -0.00865478579)
(0.0139142515 0.252424418 -0.0141849591)
(0.0124568256 0.261269065 -0.0194990617)
(0.0104096093 0.26773368 -0.0243244077)
(0.00787075997 0.26544131 -0.0282782604)
(0.00501834696 0.240101042 -0.0304002642)
(0.00172789026 0.172201069 -0.0279905488)
(-0.000461441508 0.0613943637 -0.0152023564)
(0.0047227728 0.389407249 0.00221089465)
(7.08870791e-05 0.373843663 0.00535641006)
(0.00416520314 0.358838222 0.00739077697)
(0.00779031042 0.344976732 0.00856347589)
(0.0114028109 0.332628523 0.00893908002)
(0.0151567935 0.321993567 0.00862157934)
(0.0188215452 0.313136716 0.00774399299)
(0.0221363255 0.306016889 0.0064366079)
(0.0249201905 0.300520654 0.00481656412)
(0.027033401 0.296497364 0.0029837775)
(0.0284357311 0.29375983 0.00100503048)
(0.0289856998 0.29181874 -0.00107697)
(0.0285361641 0.290321564 -0.00320157321)
(0.0270577323 0.289088979 -0.00527611691)
(0.0245446775 0.287945078 -0.00720948689)
(0.0210448646 0.286392205 -0.00891400333)
(0.0167231383 0.281526806 -0.0103077228)
(0.0116960386 0.261007388 -0.0112061653)
(0.00570484153 0.197410577 -0.0107356535)
(0.000282880685 0.0747677567 -0.00626704279)
(0.00472317447 0.389973263 -0.00234660193)
(6.90855649e-05 0.375399072 -0.00591319123)
(0.00413544221 0.360999149 -0.00857813308)
(0.00768531062 0.347228805 -0.0105626361)
(0.0111823015 0.334413704 -0.0118625932)
(0.014790649 0.322784376 -0.0125089701)
(0.0182889484 0.312498842 -0.0125604491)
(0.0214266383 0.303650507 -0.0120761011)
(0.0240020247 0.29627797 -0.0111075566)
(0.0259481889 0.290379426 -0.00969882704)
(0.0271685373 0.285937116 -0.00788069851)
(0.027553711 0.282919847 -0.00567649086)
(0.027085342 0.281169287 -0.00311185111)
(0.0256519865 0.280258799 -0.000201189922)
(0.0231918482 0.279957312 0.00297341635)
(0.0197825983 0.279630351 0.00628573915)
(0.0156076106 0.275993956 0.00955375853)
(0.0107896931 0.256209182 0.012310305)
(0.00516657523 0.193223111 0.0130725571)
(0.000152376281 0.0727750794 0.00816377714)
(0.00457973591 0.384387421 -0.00478767315)
(-0.000875745251 0.358579341 -0.0122658441)
(0.00225057915 0.333160354 -0.0177181909)
(0.00401948528 0.309292355 -0.0213238943)
(0.00588631176 0.287920634 -0.0230896755)
(0.00786857224 0.269753595 -0.0231959951)
(0.00970712513 0.255152082 -0.0219134182)
(0.0112424053 0.244116068 -0.0195129047)
(0.0124047186 0.236376775 -0.0162277668)
(0.0131760745 0.23154869 -0.0122238362)
(0.0135257263 0.229296555 -0.00756160338)
(0.0134253224 0.229515299 -0.00225509736)
(0.0128181632 0.232699659 0.0035913862)
(0.0118325435 0.239491211 0.00965965744)
(0.0103991374 0.248345993 0.0157433955)
(0.00849991317 0.255810733 0.0215909929)
(0.00621216667 0.254409688 0.0267440667)
(0.00374329007 0.229481873 0.0299621681)
(0.00104317892 0.163328657 0.0281440786)
(-0.000545007325 0.0577387729 0.0152606857)
(0.00461541132 0.381212054 -0.00603108268)
(-0.000870345567 0.34906198 -0.0157813171)
(0.00190792133 0.317551811 -0.0228632452)
(0.00290438498 0.288492908 -0.0272169837)
(0.00387041393 0.263549055 -0.0289419348)
(0.00484771296 0.243868785 -0.0284276168)
(0.00560398068 0.229778792 -0.0261498038)
(0.00607830441 0.22079167 -0.0225744192)
(0.006262501 0.215913412 -0.0180960302)
(0.00616735228 0.214060612 -0.0130007699)
(0.00582037674 0.214406187 -0.00743486416)
(0.00527621602 0.216564722 -0.00137161309)
(0.00458184917 0.220533951 0.00541504803)
(0.00374492014 0.226562432 0.0129323703)
(0.00278670879 0.233776103 0.0207864631)
(0.00170844365 0.237786934 0.0282432409)
(0.000460314245 0.229306443 0.034123849)
(-0.000440990597 0.195792729 0.0362833689)
(-0.000989397862 0.130547043 0.0310284981)
(-0.000451646167 0.0441790637 0.0144049637)
(0.00459309672 0.378469297 -0.00757210986)
(-0.000965889112 0.340940813 -0.0190881488)
(0.00150406404 0.304631959 -0.02678261)
(0.0018092061 0.272076834 -0.0309633662)
(0.00218627438 0.24555366 -0.0320064704)
(0.00255936202 0.226439921 -0.0305480606)
(0.00270764543 0.214748383 -0.027202464)
(0.00265898052 0.209237826 -0.0225348769)
(0.00242035673 0.208035527 -0.0169916584)
(0.00199064452 0.209356491 -0.0108993194)
(0.00138282134 0.211970956 -0.00444686375)
(0.00062845807 0.215284859 0.00230894862)
(-0.000231052153 0.218917924 0.00940349282)
(-0.00106966017 0.222518716 0.0169174567)
(-0.0017785096 0.224269669 0.0245301685)
(-0.00226698579 0.219479925 0.031307648)
(-0.00246850407 0.200734098 0.0356190309)
(-0.00221072178 0.161569583 0.0351490404)
(-0.00141986815 0.10275249 0.0273125083)
(-0.000316773728 0.0341824989 0.0112372004)
(0.00454746088 0.376114857 -0.00852795855)
(-0.00122748093 0.334138592 -0.0207282594)
(0.000806098539 0.294085984 -0.0283324579)
(0.000306551683 0.259045745 -0.0319962957)
(0.000258083929 0.231658059 -0.0324251482)
(0.000121840599 0.21339861 -0.030348548)
(-0.000126903191 0.203953957 -0.0264013526)
(-0.000512769306 0.201413236 -0.0211352765)
(-0.000950315503 0.203136575 -0.0150117915)
(-0.00147472906 0.206730052 -0.0083745535)
(-0.0020899016 0.210578486 -0.00143512407)
(-0.00277122209 0.213767829 0.00569692744)
(-0.00345194611 0.215610961 0.0129088363)
(-0.00402427013 0.215042599 0.0200090443)
(-0.0043421878 0.209805642 0.0264999402)
(-0.00425803559 0.196240042 0.0313792863)
(-0.00365246381 0.170420506 0.033153687)
(-0.00268974669 0.130881617 0.0302196697)
(-0.00131672889 0.0808749147 0.0216775855)
(-0.000207303091 0.0267731288 0.00825936918)
(0.00450972036 0.374544965 -0.0086462585)
(-0.00162812446 0.329757405 -0.0204756593)
(-3.0203705e-05 0.287366653 -0.0275738366)
(-0.00106834402 0.250599012 -0.0307232733)
(-0.00157476022 0.222174153 -0.0308085679)
(-0.00211179959 0.203633308 -0.0284996066)
(-0.00263498084 0.19465942 -0.02436719)
(-0.00315628979 0.193164638 -0.0189003633)
(-0.00367462695 0.196098415 -0.0125603373)
(-0.00419495428 0.200524946 -0.00572838111)
(-0.00470570079 0.204299261 0.00130387291)
(-0.00517172426 0.206073343 0.00830290934)
(-0.00552196871 0.204924158 0.0150243877)
(-0.0056519842 0.19962012 0.0210950459)
(-0.00544737161 0.188406115 0.0259105467)
(-0.00481668377 0.169346418 0.0286040308)
(-0.00374841728 0.141332734 0.0282008283)
(-0.00240175121 0.10524573 0.0240243688)
(-0.00104025218 0.0640531106 0.0162242734)
(-0.000131673178 0.0211952223 0.00586496168)
(0.0044763311 0.373970471 -0.00791589119)
(-0.00198851119 0.328275606 -0.0186078313)
(-0.000732815013 0.285015295 -0.024963824)
(-0.00195503249 0.24708027 -0.0277511067)
(-0.00281274257 0.217008883 -0.0277330881)
(-0.00355743058 0.196448795 -0.0254924835)
(-0.00424926314 0.185475922 -0.0215224085)
(-0.00486001989 0.182398247 -0.0162622336)
(-0.00537310628 0.184256461 -0.0101380335)
(-0.00578745714 0.187803617 -0.00356330124)
(-0.00609339543 0.190380808 0.00308042323)
(-0.00625766141 0.190261049 0.00945103758)
(-0.00622385547 0.186312306 0.0152036833)
(-0.00592022672 0.177565248 0.0199082848)
(-0.00529150588 0.163132332 0.023031308)
(-0.00433017912 0.142495931 0.024001233)
(-0.00311288261 0.11597668 0.022387084)
(-0.00181999354 0.0849404518 0.0181469926)
(-0.000720979209 0.0513696643 0.0117767421)
(-7.71865471e-05 0.0170247457 0.00411775541)
(0.0044674912 0.374309563 -0.00674145426)
(-0.0020525649 0.329308555 -0.0160275031)
(-0.000822816074 0.286405615 -0.0215878408)
(-0.00205070914 0.247989879 -0.0240775976)
(-0.00293141901 0.216207158 -0.0240429665)
(-0.0037116198 0.192647078 -0.0220141502)
(-0.00443313114 0.177790215 -0.0184418464)
(-0.00504724058 0.170697702 -0.0137159464)
(-0.00550917939 0.169125023 -0.00820885689)
(-0.00579634139 0.170114296 -0.00231049497)
(-0.00589968637 0.170812384 0.00357255727)
(-0.00581151525 0.169070368 0.00904158328)
(-0.00550710501 0.163538025 0.0137061941)
(-0.00496248976 0.153479776 0.0171740412)
(-0.0041803081 0.138617816 0.0190707981)
(-0.00320951484 0.119152083 0.0191127813)
(-0.00215610755 0.0958103768 0.0172180272)
(-0.00117350521 0.0697267671 0.0135896534)
(-0.000429221821 0.0421217718 0.00868024661)
(-3.97635323e-05 0.013990971 0.0030158047)
(0.00447850859 0.374870342 -0.00577082559)
(-0.00179317932 0.330822389 -0.0139111566)
(-0.000311148628 0.288522863 -0.0188173277)
(-0.00140299383 0.25008765 -0.0209785921)
(-0.00204763564 0.217322164 -0.0208139582)
(-0.00265513861 0.191529462 -0.0188699956)
(-0.00325181234 0.173145336 -0.0156193951)
(-0.00378133287 0.161641521 -0.0114516379)
(-0.00418225799 0.155580431 -0.00669375482)
(-0.00440795765 0.152830756 -0.00165969256)
(-0.00443619085 0.150984377 0.00331233319)
(-0.00426751921 0.147799012 0.00785109517)
(-0.00390756465 0.141697855 0.0115881075)
(-0.00337301178 0.131888972 0.0142008229)
(-0.00270189966 0.118221528 0.0154491285)
(-0.0019601011 0.101027897 0.0152197408)
(-0.00123732182 0.0809742866 0.0135631208)
(-0.000629331561 0.0588916346 0.010687129)
(-0.000210954127 0.0356113151 0.00688746551)
(-1.72653716e-05 0.0118498898 0.0024463117)
(0.00451446786 0.374713504 -0.00537084711)
(-0.0015517559 0.330195212 -0.0129132842)
(0.000168829455 0.287338782 -0.0173849315)
(-0.000651977213 0.248369104 -0.0191967771)
(-0.000957041395 0.215083253 -0.0187700349)
(-0.00132402369 0.188540224 -0.0167094036)
(-0.00170532453 0.168791244 -0.0135254542)
(-0.00206823066 0.155057065 -0.00964525225)
(-0.0023673318 0.146037924 -0.00540341171)
(-0.00255551384 0.140148379 -0.00107016706)
(-0.00260290508 0.135671907 0.00310539045)
(-0.00249639639 0.130876502 0.0068551903)
(-0.00224522848 0.124317094 0.00989930924)
(-0.0018788347 0.115091159 0.0119937057)
(-0.00144245609 0.10288083 0.0129744271)
(-0.000992816978 0.0878398759 0.0127849993)
(-0.000588759649 0.0704294107 0.0114777652)
(-0.000277512108 0.0512695326 0.0091833405)
(-8.1750173e-05 0.0310299086 0.00605689539)
(-5.74916793e-06 0.0103344383 0.00222735615)
(0.00452196151 0.373477382 -0.00536420728)
(-0.00145728504 0.326450856 -0.01271039)
(0.000322490904 0.281315287 -0.0169036982)
(-0.0003502711 0.240611271 -0.0183955989)
(-0.00043265484 0.206326662 -0.0177319375)
(-0.000666634737 0.179470437 -0.0155201289)
(-0.000883461828 0.159787006 -0.0122931941)
(-0.00108588488 0.146073334 -0.00849490368)
(-0.00125542977 0.136675124 -0.00447637513)
(-0.00136965361 0.129903087 -0.000511350034)
(-0.00141029147 0.124247818 0.00317865105)
(-0.00135897303 0.118461788 0.00640490578)
(-0.00121797781 0.111508349 0.0089872665)
(-0.00100728545 0.102637776 0.0107655781)
(-0.000759504603 0.0914721064 0.011626491)
(-0.000512170634 0.0780030301 0.0115221459)
(-0.000298382949 0.0625177277 0.0104675887)
(-0.000139354042 0.045500451 0.00851773196)
(-4.06693485e-05 0.0275313814 0.00573555089)
(-4.02637562e-06 0.00916860023 0.00216661394)
(0.00451361837 0.37158896 -0.00538929121)
(-0.00149630404 0.320855057 -0.0125884453)
(0.000280571 0.272372685 -0.0165476842)
(-0.000422090087 0.229048886 -0.0177777989)
(-0.000540429642 0.193095154 -0.0169653259)
(-0.000747234726 0.16553919 -0.0146938058)
(-0.000928093401 0.145953449 -0.0115004206)
(-0.00107413148 0.132828592 -0.00781280005)
(-0.00117459516 0.124171347 -0.00396598383)
(-0.00122397047 0.118022703 -0.000224156385)
(-0.00121761657 0.112753109 0.00320029217)
(-0.00115238795 0.10717141 0.00613939442)
(-0.00103255085 0.100456331 0.00845905121)
(-0.000869424159 0.0920777356 0.0100514648)
(-0.000681816735 0.0817725945 0.0108382337)
(-0.000491536186 0.0695393594 0.0107758829)
(-0.000317603109 0.0556124013 0.00985442027)
(-0.000173393921 0.0404044786 0.00808698565)
(-6.74888021e-05 0.0244177459 0.0054954778)
(-9.90672402e-06 0.00812628695 0.00209749239)
(0.00449959883 0.369532816 -0.00528593464)
(-0.00156134388 0.314794094 -0.0122060722)
(0.00016167033 0.262672084 -0.0158747992)
(-0.000629114504 0.21640179 -0.0168790157)
(-0.000879471368 0.178430872 -0.0159490277)
(-0.00113886717 0.149826477 -0.0136925431)
(-0.0013733174 0.130020342 -0.0106330297)
(-0.00155503214 0.117253835 -0.00716529423)
(-0.00166745897 0.109278869 -0.00358504548)
(-0.00170493658 0.103939562 -0.000122303471)
(-0.0016678731 0.0994876473 0.00303592611)
(-0.00156469779 0.0946717513 0.00573485371)
(-0.00140559369 0.0887051329 0.00785345565)
(-0.00120296985 0.0811622526 0.00930044897)
(-0.000972386688 0.0718918547 0.0100115148)
(-0.000731137763 0.060963173 0.0099480223)
(-0.000496410914 0.0486250133 0.00909535847)
(-0.000285382859 0.0352532141 0.00745936245)
(-0.000117718144 0.0212750767 0.0050605543)
(-1.55440193e-05 0.00707513476 0.00192512219)
(0.00448948343 0.367476195 -0.00506243644)
(-0.00160886696 0.308727146 -0.0115505783)
(5.67292506e-05 0.252923326 -0.0148356413)
(-0.000826930477 0.203606878 -0.015568591)
(-0.00120502374 0.163493788 -0.0145070505)
(-0.00155321546 0.13370539 -0.0122978737)