/*--------------------------------*- C++ -*----------------------------------*\
| =========                 |                                                 |
| \\      /  F ield         | OpenFOAM: The Open Source CFD Toolbox           |
|  \\    /   O peration     | Version:  2506                                  |
|   \\  /    A nd           | Website:  www.openfoam.com                      |
|    \\/     M anipulation  |                                                 |
\*---------------------------------------------------------------------------*/
// * * * * * * * * * * * * * * * * * * * * * * * * * * * * * * * * * * * * * //
FoamFile
{
    version         2;
    format          ascii;
    arch            "LSB;label=32;scalar=64";
    class           volVectorField;
    location        "10";
    object          U;
}

dimensions      [ 0 1 -1 0 0 0 0 ];

internalField   nonuniform List<vector> 
800
(
(0.00303228 0.26533 0.00801617)
(-0.00122727 0.119342 0.010981)
(-0.000355295 0.0498166 0.0119534)
(-0.00138664 0.0198943 0.0119901)
(-0.00224594 0.00846707 0.0118743)
(-0.00299841 0.00590806 0.0116797)
(-0.0036126 0.00881204 0.0113312)
(-0.00405851 0.016855 0.0106543)
(-0.00423934 0.030994 0.00934815)
(-0.00380514 0.05215 0.00689853)
(-0.00300397 0.0794071 0.00269113)
(-0.00220604 0.106617 -0.00358676)
(-0.00147637 0.120918 -0.0104434)
(-0.000949265 0.125041 -0.0164015)
(-0.000568874 0.1208 -0.0207224)
(-0.000252539 0.109282 -0.0228353)
(1.81609e-05 0.0914161 -0.0223471)
(0.00019622 0.0685098 -0.0191517)
(0.000203706 0.0422209 -0.0134176)
(5.86128e-05 0.0141893 -0.00529458)
(0.00462434 0.339063 0.00839159)
(-0.00195272 0.214659 0.0163226)
(-0.00104251 0.118371 0.0195643)
(-0.00285538 0.0628759 0.0204526)
(-0.00424937 0.0410691 0.0202326)
(-0.00550867 0.0416558 0.0191285)
(-0.00648941 0.0557598 0.0169387)
(-0.00702144 0.0772244 0.0133927)
(-0.00706203 0.10095 0.00843732)
(-0.00662893 0.122005 0.00244493)
(-0.00603304 0.136599 -0.00382373)
(-0.00547654 0.144685 -0.00975106)
(-0.00506612 0.147599 -0.0153171)
(-0.00470214 0.146083 -0.0202639)
(-0.00422861 0.139667 -0.0240767)
(-0.00353056 0.126993 -0.025976)
(-0.00258298 0.107008 -0.0251104)
(-0.00151518 0.0802679 -0.0209696)
(-0.000559621 0.0491298 -0.0138588)
(-5.43498e-05 0.0163461 -0.00488784)
(0.00441826 0.347925 0.00794657)
(-0.00177119 0.248841 0.0175518)
(-0.00033864 0.161736 0.0221413)
(-0.00152472 0.102976 0.0235451)
(-0.00209667 0.0758184 0.0230236)
(-0.00258978 0.0733895 0.0210514)
(-0.0029191 0.0857526 0.0177614)
(-0.00309468 0.103872 0.0133498)
(-0.00321907 0.121051 0.00822219)
(-0.00345589 0.133846 0.00284377)
(-0.00389312 0.142344 -0.00261578)
(-0.00442863 0.148002 -0.00829164)
(-0.00491961 0.152019 -0.0142668)
(-0.00524577 0.154508 -0.020317)
(-0.00528354 0.153777 -0.0258273)
(-0.00491487 0.146458 -0.0297565)
(-0.00403618 0.128906 -0.0307227)
(-0.00280897 0.0997334 -0.0273639)
(-0.00129843 0.0617514 -0.0190982)
(-0.00015897 0.0204391 -0.0069936)
(0.00448089 0.355423 0.00800661)
(-0.00124245 0.272973 0.0181013)
(0.000816831 0.198597 0.0232964)
(0.000437975 0.142626 0.0250486)
(0.000582679 0.110132 0.024473)
(0.000712788 0.098576 0.022297)
(0.000793068 0.10095 0.0189646)
(0.000778264 0.109753 0.0148761)
(0.000601229 0.119548 0.0103954)
(0.000228135 0.127862 0.00569268)
(-0.000284124 0.134613 0.000648269)
(-0.00092012 0.140722 -0.00499914)
(-0.00162221 0.147603 -0.0113107)
(-0.00229437 0.155805 -0.0181602)
(-0.00284318 0.163585 -0.0250774)
(-0.00317705 0.166243 -0.0311093)
(-0.00313451 0.156743 -0.0347175)
(-0.00266611 0.128855 -0.0337591)
(-0.00164522 0.0827497 -0.0259038)
(-0.000333559 0.0274836 -0.0104507)
(0.00455375 0.363048 0.00682942)
(-0.00100256 0.29525 0.0159623)
(0.00147953 0.232771 0.0209352)
(0.00196479 0.181795 0.0227844)
(0.00271951 0.146062 0.0223449)
(0.00355526 0.125319 0.0204017)
(0.0042555 0.116267 0.0174985)
(0.00475971 0.114648 0.0140025)
(0.00505817 0.11694 0.0101574)
(0.00518004 0.121088 0.00605423)
(0.00510669 0.126448 0.00161906)
(0.0048699 0.133515 -0.00331762)
(0.00446983 0.143039 -0.00896334)
(0.00387902 0.155458 -0.0153298)
(0.00307585 0.16965 -0.0220865)
(0.00209175 0.181646 -0.0285474)
(0.000873191 0.18336 -0.0335976)
(-0.000170581 0.162868 -0.035313)
(-0.000883838 0.111646 -0.0302901)
(-0.000503101 0.0381114 -0.0143159)
(0.00455815 0.372628 0.0063243)
(-0.000653932 0.323854 0.0139949)
(0.00278298 0.278782 0.0178075)
(0.00512977 0.240266 0.0191846)
(0.00750558 0.20973 0.0188146)
(0.00995273 0.187216 0.0173013)
(0.0122454 0.171753 0.0150854)
(0.0142242 0.161946 0.0124173)
(0.0157804 0.156444 0.00940632)
(0.016908 0.154201 0.00606958)
(0.0175323 0.1547 0.00236101)
(0.0177518 0.159046 -0.00178232)
(0.0174743 0.166993 -0.00630759)
(0.0165897 0.177778 -0.0110591)
(0.0150034 0.190138 -0.0158033)
(0.0126934 0.201824 -0.0202235)
(0.00971343 0.207664 -0.0238925)
(0.00635239 0.19517 -0.0259854)
(0.00250164 0.144892 -0.0243302)
(-0.000315731 0.0527708 -0.0137085)
(0.0050181 0.385289 0.000732551)
(0.00185309 0.361463 0.00119442)
(0.00722994 0.339097 0.000978998)
(0.0126569 0.318913 0.00055082)
(0.0175987 0.30133 9.47185e-05)
(0.0221875 0.286462 -0.000310685)
(0.0263017 0.274196 -0.000650581)
(0.0297859 0.264315 -0.000940148)
(0.0325359 0.256572 -0.00119956)
(0.0344766 0.250718 -0.00145144)
(0.0356144 0.2465 -0.00171358)
(0.0358277 0.24326 -0.0019826)
(0.0350395 0.24076 -0.00223069)
(0.0331148 0.238526 -0.00244067)
(0.0299749 0.236468 -0.00257183)
(0.0256441 0.234422 -0.0025811)
(0.0202614 0.230757 -0.00243808)
(0.0140232 0.216548 -0.0021284)
(0.00704593 0.167747 -0.00162466)
(0.000734352 0.065107 -0.000762156)
(0.00464145 0.375873 -0.00633604)
(0.000205609 0.332743 -0.0149962)
(0.004371 0.292118 -0.0200286)
(0.00775134 0.257279 -0.0222725)
(0.0107985 0.230061 -0.0223808)
(0.0136139 0.210476 -0.0210414)
(0.0160786 0.197337 -0.0188119)
(0.0180356 0.18907 -0.0160514)
(0.0194104 0.184247 -0.0129608)
(0.0202414 0.181806 -0.00963877)
(0.0205357 0.181073 -0.00611657)
(0.02026 0.181714 -0.00237011)
(0.0193211 0.183918 0.00169661)
(0.0178155 0.188523 0.00606303)
(0.0157352 0.195141 0.0106192)
(0.0130788 0.202322 0.0151541)
(0.00988704 0.205337 0.019274)
(0.00641311 0.191658 0.0221677)
(0.00252655 0.141782 0.0215609)
(-0.0002973 0.0516028 0.0124324)
(0.00470228 0.36349 -0.00914707)
(-0.000374086 0.296033 -0.0211426)
(0.00246998 0.236203 -0.0270601)
(0.00341605 0.191873 -0.0285783)
(0.00422772 0.164996 -0.0271991)
(0.00481765 0.152351 -0.0242027)
(0.00521721 0.148941 -0.0203557)
(0.00540532 0.150358 -0.0160539)
(0.00541288 0.153613 -0.0115016)
(0.00526181 0.157152 -0.00678442)
(0.00490267 0.16063 -0.00193694)
(0.00430353 0.164731 0.002966)
(0.00354652 0.169666 0.00794087)
(0.00265103 0.175603 0.0132607)
(0.00164219 0.181902 0.0189745)
(0.000516644 0.185707 0.0247064)
(-0.000414487 0.18039 0.029451)
(-0.00101208 0.155649 0.0311921)
(-0.00128548 0.104933 0.0267818)
(-0.000550734 0.0355993 0.0125936)
(0.0045528 0.352119 -0.0114343)
(-0.00142919 0.264886 -0.023832)
(-1.77222e-05 0.19573 -0.0285908)
(-0.00131527 0.154806 -0.0287739)
(-0.00220312 0.138485 -0.0266303)
(-0.00298437 0.137301 -0.0233446)
(-0.00377533 0.143107 -0.0194582)
(-0.00449065 0.150866 -0.0152231)
(-0.00514773 0.157968 -0.0107326)
(-0.00575112 0.163399 -0.00595661)
(-0.0062893 0.167142 -0.00079463)
(-0.0067812 0.169565 0.00479139)
(-0.00716862 0.17122 0.0105525)
(-0.00739821 0.171781 0.0162798)
(-0.00734609 0.169593 0.0216517)
(-0.00692041 0.161631 0.0260114)
(-0.00582822 0.143881 0.0281965)
(-0.00422749 0.113218 0.0265581)
(-0.00228056 0.0708735 0.0196601)
(-0.000369656 0.0233114 0.00753439)
(0.00425725 0.340763 -0.00968097)
(-0.00372327 0.237218 -0.0182989)
(-0.00454307 0.165119 -0.020984)
(-0.00703415 0.130345 -0.020583)
(-0.00941098 0.120375 -0.0188341)
(-0.0114448 0.121873 -0.0162923)
(-0.0131052 0.127563 -0.0131693)
(-0.0143707 0.134341 -0.00960053)
(-0.0152461 0.140696 -0.00571179)
(-0.0157419 0.145596 -0.00162951)
(-0.0158471 0.148241 0.00252319)
(-0.0155241 0.148226 0.00663234)
(-0.0147428 0.145899 0.010609)
(-0.0134746 0.140696 0.0141858)
(-0.011724 0.131618 0.0169479)
(-0.00951097 0.117511 0.018332)
(-0.0068907 0.0976182 0.0177035)
(-0.00414445 0.0723801 0.0146175)
(-0.00169963 0.0437954 0.00925839)
(-0.000153427 0.0144014 0.00288827)
(0.00408899 0.332856 -0.00275142)
(-0.00548706 0.220452 -0.00527781)
(-0.00817478 0.149088 -0.0063857)
(-0.0117491 0.117512 -0.00679801)
(-0.0150478 0.106881 -0.00687104)
(-0.0177738 0.103285 -0.00666022)
(-0.0198032 0.101308 -0.00613917)
(-0.0210815 0.0995755 -0.0052944)
(-0.0215947 0.0978052 -0.00413745)
(-0.0213531 0.0958987 -0.00271226)
(-0.020395 0.0937534 -0.00108514)
(-0.01881 0.0910626 0.000641751)
(-0.0166857 0.0871067 0.00232054)
(-0.0141031 0.0814701 0.00376049)
(-0.0112113 0.0738097 0.00474041)
(-0.00817805 0.0639238 0.00504137)
(-0.00525255 0.0518937 0.00454558)
(-0.00272465 0.0381409 0.00333895)
(-0.000910283 0.0232644 0.0017756)
(-4.31739e-05 0.00778482 0.000387311)
(0.00415202 0.335225 0.00650184)
(-0.00515025 0.226574 0.0109499)
(-0.00753508 0.158252 0.0109829)
(-0.0109799 0.129885 0.00896291)
(-0.0141763 0.122794 0.00617888)
(-0.0168197 0.122517 0.00316755)
(-0.0187571 0.123097 0.000199855)
(-0.0199271 0.122799 -0.00255758)
(-0.0203467 0.121135 -0.00498353)
(-0.0200547 0.117676 -0.00697947)
(-0.0190545 0.112381 -0.00847759)
(-0.0173989 0.105322 -0.00942722)
(-0.0151795 0.0966122 -0.00979278)
(-0.0125357 0.0864145 -0.00957105)
(-0.00965978 0.0749532 -0.00880159)
(-0.00679006 0.0624963 -0.00757441)
(-0.00418559 0.0493101 -0.00602486)
(-0.00208751 0.0356054 -0.00430744)
(-0.000679148 0.0215186 -0.00255386)
(-3.4749e-05 0.00717117 -0.000837575)
(0.00435878 0.344233 0.0122546)
(-0.00339498 0.247395 0.0226956)
(-0.00399822 0.182525 0.0247554)
(-0.00653858 0.155605 0.0223221)
(-0.00884446 0.153377 0.0179568)
(-0.0108288 0.161209 0.0127945)
(-0.0124413 0.170518 0.00734863)
(-0.0136688 0.177441 0.00192814)
(-0.0144715 0.180562 -0.00323938)
(-0.0147706 0.180315 -0.00796471)
(-0.0145835 0.176921 -0.012136)
(-0.0138914 0.170306 -0.0156098)
(-0.0126902 0.160269 -0.0181935)
(-0.0110114 0.146619 -0.0196549)
(-0.00894322 0.12935 -0.0197653)
(-0.0066456 0.108824 -0.0183812)
(-0.00434682 0.085829 -0.015546)
(-0.00231828 0.0614258 -0.0115595)
(-0.000831182 0.0366202 -0.00693569)
(-6.29112e-05 0.0120546 -0.00222361)
(0.00453024 0.353885 0.0137644)
(-0.00168801 0.271363 0.0280723)
(-0.000767989 0.210434 0.0324738)
(-0.00251556 0.180879 0.0307516)
(-0.00397277 0.175967 0.0260149)
(-0.00528447 0.183232 0.0199296)
(-0.00651434 0.19328 0.0133794)
(-0.00762952 0.201602 0.00680991)
(-0.00859506 0.206998 0.00041773)
(-0.00937281 0.209496 -0.00572376)
(-0.00990481 0.209186 -0.011543)
(-0.0101277 0.205959 -0.0169274)
(-0.00996697 0.199207 -0.0216443)
(-0.00935003 0.187942 -0.0253061)
(-0.0082353 0.17111 -0.0273836)
(-0.00665266 0.148121 -0.0272993)
(-0.00474157 0.119399 -0.024633)
(-0.00276605 0.0865627 -0.0193996)
(-0.00110131 0.0518473 -0.0122224)
(-0.000111906 0.0170508 -0.00411595)
(0.00458429 0.362226 0.0127008)
(-0.000870225 0.293808 0.0283144)
(0.00107356 0.238096 0.0347977)
(0.000393264 0.204775 0.034716)
(-0.000263009 0.19301 0.0307232)
(-0.00107317 0.194636 0.0248087)
(-0.00196243 0.201404 0.0181548)
(-0.00288453 0.208454 0.0113582)
(-0.00381341 0.21398 0.00464954)
(-0.00471483 0.21779 -0.00194532)
(-0.00555414 0.21997 -0.00845301)
(-0.00626999 0.220551 -0.014871)
(-0.00678348 0.218918 -0.021076)
(-0.00698137 0.213576 -0.0267254)
(-0.00674129 0.202187 -0.0311679)
(-0.00597207 0.182186 -0.0334363)
(-0.00467536 0.152102 -0.032428)
(-0.00302868 0.112969 -0.0273456)
(-0.00133434 0.0684019 -0.0183157)
(-0.000172201 0.0225021 -0.0065561)
(0.00463029 0.368989 0.0105808)
(-0.000662006 0.313002 0.0253601)
(0.00191154 0.26379 0.033157)
(0.00215084 0.228706 0.0350046)
(0.00223626 0.209911 0.0325744)
(0.0019782 0.2039 0.0276663)
(0.00148874 0.205096 0.0215741)
(0.00082241 0.208997 0.0150597)
(4.53644e-05 0.21315 0.00848245)
(-0.00079608 0.216757 0.0019383)
(-0.00167076 0.219944 -0.00463162)
(-0.00256219 0.222859 -0.0113203)
(-0.00339693 0.225422 -0.0181785)
(-0.00407053 0.226506 -0.0250628)
(-0.00445974 0.223221 -0.0314287)
(-0.00443304 0.210877 -0.0361968)
(-0.0038822 0.184534 -0.0377654)
(-0.00295208 0.14226 -0.0343186)
(-0.0014918 0.0878424 -0.0246817)
(-0.000250926 0.0289624 -0.00944434)
(0.0046285 0.374448 0.00828294)
(-0.00062304 0.328979 0.0209499)
(0.00226283 0.286851 0.0289381)
(0.00322169 0.252806 0.0322467)
(0.00391252 0.229578 0.0316373)
(0.00430752 0.216673 0.0283098)
(0.00433844 0.211372 0.0233737)
(0.00407321 0.210542 0.017633)
(0.0035822 0.211836 0.0115631)
(0.00292378 0.214034 0.00537133)
(0.0021457 0.216849 -0.000926811)
(0.00127246 0.220418 -0.00743271)
(0.00038195 0.225228 -0.0143658)
(-0.000454296 0.231101 -0.0217493)
(-0.00118453 0.235654 -0.0291613)
(-0.00174202 0.233242 -0.0356672)
(-0.00207652 0.215432 -0.0397104)
(-0.00204495 0.174736 -0.0389359)
(-0.00143668 0.111522 -0.0304347)
(-0.000368009 0.0370392 -0.0127074)
(0.00462231 0.378954 0.00609945)
(-0.000702077 0.342396 0.0160255)
(0.00232017 0.307433 0.0230805)
(0.00376207 0.276811 0.0269309)
(0.00501301 0.252615 0.0277408)
(0.00612694 0.23551 0.0261157)
(0.00690197 0.224748 0.0227839)
(0.00731486 0.218825 0.0183884)
(0.00741105 0.216225 0.0133872)
(0.00724741 0.215886 0.00802662)
(0.00688157 0.217367 0.00234011)
(0.00637317 0.220848 -0.00385877)
(0.0057312 0.226853 -0.0106853)
(0.00494574 0.235488 -0.0179831)
(0.00398515 0.244986 -0.0253224)
(0.00283821 0.250494 -0.0320464)
(0.00151071 0.24281 -0.0371569)
(0.000312311 0.208898 -0.0387419)
(-0.000695205 0.140294 -0.0331193)
(-0.000476887 0.0476182 -0.0156461)
(0.00457466 0.383067 0.00462838)
(-0.000840816 0.354778 0.0117865)
(0.00238041 0.327466 0.0168542)
(0.00435533 0.302645 0.0199193)
(0.00641816 0.281442 0.0210039)
(0.00858136 0.264481 0.0203519)
(0.0105828 0.251806 0.0183232)
(0.0122725 0.243018 0.0152674)
(0.0135987 0.237535 0.0114559)
(0.0145366 0.234828 0.00705857)
(0.0150257 0.234663 0.00215338)
(0.0151048 0.237756 -0.00314435)
(0.0147709 0.244031 -0.00865479)
(0.0139143 0.252424 -0.014185)
(0.0124568 0.261269 -0.0194991)
(0.0104096 0.267734 -0.0243244)
(0.00787076 0.265441 -0.0282783)
(0.00501835 0.240101 -0.0304003)
(0.00172789 0.172201 -0.0279905)
(-0.000461442 0.0613944 -0.0152024)
(0.00472277 0.389407 0.00221089)
(7.08871e-05 0.373844 0.00535641)
(0.0041652 0.358838 0.00739078)
(0.00779031 0.344977 0.00856348)
(0.0114028 0.332629 0.00893908)
(0.0151568 0.321994 0.00862158)
(0.0188215 0.313137 0.00774399)
(0.0221363 0.306017 0.00643661)
(0.0249202 0.300521 0.00481656)
(0.0270334 0.296497 0.00298378)
(0.0284357 0.29376 0.00100503)
(0.0289857 0.291819 -0.00107697)
(0.0285362 0.290322 -0.00320157)
(0.0270577 0.289089 -0.00527612)
(0.0245447 0.287945 -0.00720949)
(0.0210449 0.286392 -0.008914)
(0.0167231 0.281527 -0.0103077)
(0.011696 0.261007 -0.0112062)
(0.00570484 0.197411 -0.0107357)
(0.000282881 0.0747678 -0.00626704)
(0.00472317 0.389973 -0.0023466)
(6.90856e-05 0.375399 -0.00591319)
(0.00413544 0.360999 -0.00857813)
(0.00768531 0.347229 -0.0105626)
(0.0111823 0.334414 -0.0118626)
(0.0147906 0.322784 -0.012509)
(0.0182889 0.312499 -0.0125604)
(0.0214266 0.303651 -0.0120761)
(0.024002 0.296278 -0.0111076)
(0.0259482 0.290379 -0.00969883)
(0.0271685 0.285937 -0.0078807)
(0.0275537 0.28292 -0.00567649)
(0.0270853 0.281169 -0.00311185)
(0.025652 0.280259 -0.00020119)
(0.0231918 0.279957 0.00297342)
(0.0197826 0.27963 0.00628574)
(0.0156076 0.275994 0.00955376)
(0.0107897 0.256209 0.0123103)
(0.00516658 0.193223 0.0130726)
(0.000152376 0.0727751 0.00816378)
(0.00457974 0.384387 -0.00478767)
(-0.000875745 0.358579 -0.0122658)
(0.00225058 0.33316 -0.0177182)
(0.00401949 0.309292 -0.0213239)
(0.00588631 0.287921 -0.0230897)
(0.00786857 0.269754 -0.023196)
(0.00970713 0.255152 -0.0219134)
(0.0112424 0.244116 -0.0195129)
(0.0124047 0.236377 -0.0162278)
(0.0131761 0.231549 -0.0122238)
(0.0135257 0.229297 -0.0075616)
(0.0134253 0.229515 -0.0022551)
(0.0128182 0.2327 0.00359139)
(0.0118325 0.239491 0.00965966)
(0.0103991 0.248346 0.0157434)
(0.00849991 0.255811 0.021591)
(0.00621217 0.25441 0.0267441)
(0.00374329 0.229482 0.0299622)
(0.00104318 0.163329 0.0281441)
(-0.000545007 0.0577388 0.0152607)
(0.00461541 0.381212 -0.00603108)
(-0.000870346 0.349062 -0.0157813)
(0.00190792 0.317552 -0.0228632)
(0.00290438 0.288493 -0.027217)
(0.00387041 0.263549 -0.0289419)
(0.00484771 0.243869 -0.0284276)
(0.00560398 0.229779 -0.0261498)
(0.0060783 0.220792 -0.0225744)
(0.0062625 0.215913 -0.018096)
(0.00616735 0.214061 -0.0130008)
(0.00582038 0.214406 -0.00743486)
(0.00527622 0.216565 -0.00137161)
(0.00458185 0.220534 0.00541505)
(0.00374492 0.226562 0.0129324)
(0.00278671 0.233776 0.0207865)
(0.00170844 0.237787 0.0282432)
(0.000460314 0.229306 0.0341238)
(-0.000440991 0.195793 0.0362834)
(-0.000989398 0.130547 0.0310285)
(-0.000451646 0.0441791 0.014405)
(0.0045931 0.378469 -0.00757211)
(-0.000965889 0.340941 -0.0190881)
(0.00150406 0.304632 -0.0267826)
(0.00180921 0.272077 -0.0309634)
(0.00218627 0.245554 -0.0320065)
(0.00255936 0.22644 -0.0305481)
(0.00270765 0.214748 -0.0272025)
(0.00265898 0.209238 -0.0225349)
(0.00242036 0.208036 -0.0169917)
(0.00199064 0.209356 -0.0108993)
(0.00138282 0.211971 -0.00444686)
(0.000628458 0.215285 0.00230895)
(-0.000231052 0.218918 0.00940349)
(-0.00106966 0.222519 0.0169175)
(-0.00177851 0.22427 0.0245302)
(-0.00226699 0.21948 0.0313076)
(-0.0024685 0.200734 0.035619)
(-0.00221072 0.16157 0.035149)
(-0.00141987 0.102752 0.0273125)
(-0.000316774 0.0341825 0.0112372)
(0.00454746 0.376115 -0.00852796)
(-0.00122748 0.334139 -0.0207283)
(0.000806099 0.294086 -0.0283325)
(0.000306552 0.259046 -0.0319963)
(0.000258084 0.231658 -0.0324251)
(0.000121841 0.213399 -0.0303485)
(-0.000126903 0.203954 -0.0264014)
(-0.000512769 0.201413 -0.0211353)
(-0.000950316 0.203137 -0.0150118)
(-0.00147473 0.20673 -0.00837455)
(-0.0020899 0.210578 -0.00143512)
(-0.00277122 0.213768 0.00569693)
(-0.00345195 0.215611 0.0129088)
(-0.00402427 0.215043 0.020009)
(-0.00434219 0.209806 0.0264999)
(-0.00425804 0.19624 0.0313793)
(-0.00365246 0.170421 0.0331537)
(-0.00268975 0.130882 0.0302197)
(-0.00131673 0.0808749 0.0216776)
(-0.000207303 0.0267731 0.00825937)
(0.00450972 0.374545 -0.00864626)
(-0.00162812 0.329757 -0.0204757)
(-3.02037e-05 0.287367 -0.0275738)
(-0.00106834 0.250599 -0.0307233)
(-0.00157476 0.222174 -0.0308086)
(-0.0021118 0.203633 -0.0284996)
(-0.00263498 0.194659 -0.0243672)
(-0.00315629 0.193165 -0.0189004)
(-0.00367463 0.196098 -0.0125603)
(-0.00419495 0.200525 -0.00572838)
(-0.0047057 0.204299 0.00130387)
(-0.00517172 0.206073 0.00830291)
(-0.00552197 0.204924 0.0150244)
(-0.00565198 0.19962 0.021095)
(-0.00544737 0.188406 0.0259105)
(-0.00481668 0.169346 0.028604)
(-0.00374842 0.141333 0.0282008)
(-0.00240175 0.105246 0.0240244)
(-0.00104025 0.0640531 0.0162243)
(-0.000131673 0.0211952 0.00586496)
(0.00447633 0.37397 -0.00791589)
(-0.00198851 0.328276 -0.0186078)
(-0.000732815 0.285015 -0.0249638)
(-0.00195503 0.24708 -0.0277511)
(-0.00281274 0.217009 -0.0277331)
(-0.00355743 0.196449 -0.0254925)
(-0.00424926 0.185476 -0.0215224)
(-0.00486002 0.182398 -0.0162622)
(-0.00537311 0.184256 -0.010138)
(-0.00578746 0.187804 -0.0035633)
(-0.0060934 0.190381 0.00308042)
(-0.00625766 0.190261 0.00945104)
(-0.00622386 0.186312 0.0152037)
(-0.00592023 0.177565 0.0199083)
(-0.00529151 0.163132 0.0230313)
(-0.00433018 0.142496 0.0240012)
(-0.00311288 0.115977 0.0223871)
(-0.00181999 0.0849405 0.018147)
(-0.000720979 0.0513697 0.0117767)
(-7.71865e-05 0.0170247 0.00411776)
(0.00446749 0.37431 -0.00674145)
(-0.00205256 0.329309 -0.0160275)
(-0.000822816 0.286406 -0.0215878)
(-0.00205071 0.24799 -0.0240776)
(-0.00293142 0.216207 -0.024043)
(-0.00371162 0.192647 -0.0220142)
(-0.00443313 0.17779 -0.0184418)
(-0.00504724 0.170698 -0.0137159)
(-0.00550918 0.169125 -0.00820886)
(-0.00579634 0.170114 -0.00231049)
(-0.00589969 0.170812 0.00357256)
(-0.00581152 0.16907 0.00904158)
(-0.00550711 0.163538 0.0137062)
(-0.00496249 0.15348 0.017174)
(-0.00418031 0.138618 0.0190708)
(-0.00320951 0.119152 0.0191128)
(-0.00215611 0.0958104 0.017218)
(-0.00117351 0.0697268 0.0135897)
(-0.000429222 0.0421218 0.00868025)
(-3.97635e-05 0.013991 0.0030158)
(0.00447851 0.37487 -0.00577083)
(-0.00179318 0.330822 -0.0139112)
(-0.000311149 0.288523 -0.0188173)
(-0.00140299 0.250088 -0.0209786)
(-0.00204764 0.217322 -0.020814)
(-0.00265514 0.191529 -0.01887)
(-0.00325181 0.173145 -0.0156194)
(-0.00378133 0.161642 -0.0114516)
(-0.00418226 0.15558 -0.00669375)
(-0.00440796 0.152831 -0.00165969)
(-0.00443619 0.150984 0.00331233)
(-0.00426752 0.147799 0.0078511)
(-0.00390756 0.141698 0.0115881)
(-0.00337301 0.131889 0.0142008)
(-0.0027019 0.118222 0.0154491)
(-0.0019601 0.101028 0.0152197)
(-0.00123732 0.0809743 0.0135631)
(-0.000629332 0.0588916 0.0106871)
(-0.000210954 0.0356113 0.00688747)
(-1.72654e-05 0.0118499 0.00244631)
(0.00451447 0.374714 -0.00537085)
(-0.00155176 0.330195 -0.0129133)
(0.000168829 0.287339 -0.0173849)
(-0.000651977 0.248369 -0.0191968)
(-0.000957041 0.215083 -0.01877)
(-0.00132402 0.18854 -0.0167094)
(-0.00170532 0.168791 -0.0135255)
(-0.00206823 0.155057 -0.00964525)
(-0.00236733 0.146038 -0.00540341)
(-0.00255551 0.140148 -0.00107017)
(-0.00260291 0.135672 0.00310539)
(-0.0024964 0.130877 0.00685519)
(-0.00224523 0.124317 0.00989931)
(-0.00187883 0.115091 0.0119937)
(-0.00144246 0.102881 0.0129744)
(-0.000992817 0.0878399 0.012785)
(-0.00058876 0.0704294 0.0114778)
(-0.000277512 0.0512695 0.00918334)
(-8.17502e-05 0.0310299 0.0060569)
(-5.74917e-06 0.0103344 0.00222736)
(0.00452196 0.373477 -0.00536421)
(-0.00145729 0.326451 -0.0127104)
(0.000322491 0.281315 -0.0169037)
(-0.000350271 0.240611 -0.0183956)
(-0.000432655 0.206327 -0.0177319)
(-0.000666635 0.17947 -0.0155201)
(-0.000883462 0.159787 -0.0122932)
(-0.00108588 0.146073 -0.0084949)
(-0.00125543 0.136675 -0.00447638)
(-0.00136965 0.129903 -0.00051135)
(-0.00141029 0.124248 0.00317865)
(-0.00135897 0.118462 0.00640491)
(-0.00121798 0.111508 0.00898727)
(-0.00100729 0.102638 0.0107656)
(-0.000759505 0.0914721 0.0116265)
(-0.000512171 0.078003 0.0115221)
(-0.000298383 0.0625177 0.0104676)
(-0.000139354 0.0455005 0.00851773)
(-4.06693e-05 0.0275314 0.00573555)
(-4.02638e-06 0.0091686 0.00216661)
(0.00451362 0.371589 -0.00538929)
(-0.0014963 0.320855 -0.0125884)
(0.000280571 0.272373 -0.0165477)
(-0.00042209 0.229049 -0.0177778)
(-0.00054043 0.193095 -0.0169653)
(-0.000747235 0.165539 -0.0146938)
(-0.000928093 0.145953 -0.0115004)
(-0.00107413 0.132829 -0.0078128)
(-0.0011746 0.124171 -0.00396598)
(-0.00122397 0.118023 -0.000224156)
(-0.00121762 0.112753 0.00320029)
(-0.00115239 0.107171 0.00613939)
(-0.00103255 0.100456 0.00845905)
(-0.000869424 0.0920777 0.0100515)
(-0.000681817 0.0817726 0.0108382)
(-0.000491536 0.0695394 0.0107759)
(-0.000317603 0.0556124 0.00985442)
(-0.000173394 0.0404045 0.00808699)
(-6.74888e-05 0.0244177 0.00549548)
(-9.90672e-06 0.00812629 0.00209749)
(0.0044996 0.369533 -0.00528593)
(-0.00156134 0.314794 -0.0122061)
(0.00016167 0.262672 -0.0158748)
(-0.000629115 0.216402 -0.016879)
(-0.000879471 0.178431 -0.015949)
(-0.00113887 0.149826 -0.0136925)
(-0.00137332 0.13002 -0.010633)
(-0.00155503 0.117254 -0.00716529)
(-0.00166746 0.109279 -0.00358505)
(-0.00170494 0.10394 -0.000122303)
(-0.00166787 0.0994876 0.00303593)
(-0.0015647 0.0946718 0.00573485)
(-0.00140559 0.0887051 0.00785346)
(-0.00120297 0.0811623 0.00930045)
(-0.000972387 0.0718919 0.0100115)
(-0.000731138 0.0609632 0.00994802)
(-0.000496411 0.048625 0.00909536)
(-0.000285383 0.0352532 0.00745936)
(-0.000117718 0.0212751 0.00506055)
(-1.5544e-05 0.00707513 0.00192512)
(0.00448948 0.367476 -0.00506244)
(-0.00160887 0.308727 -0.0115506)
(5.67293e-05 0.252923 -0.0148356)
(-0.00082693 0.203607 -0.0155686)
(-0.00120502 0.163494 -0.0145071)
(-0.00155322 0.133705 -0.0122979)
(-0.00187145 0.113502 -0.00944422)
(-0.00212219 0.100853 -0.00629698)
(-0.00228113 0.0932804 -0.00309988)
(-0.00233822 0.0884913 -3.50479e-05)
(-0.00229294 0.0846892 0.0027485)
(-0.00215501 0.0806262 0.0051214)
(-0.0019393 0.07554 0.00697679)
(-0.00166354 0.0690497 0.0082319)
(-0.00134788 0.0610567 0.00882921)
(-0.00101434 0.0516664 0.00873662)
(-0.000686527 0.0411269 0.007947)
(-0.000390672 0.0297703 0.00647653)
(-0.000157794 0.0179488 0.00436017)
(-1.80117e-05 0.00596593 0.00164171)
(0.00448343 0.365335 -0.0047805)
(-0.00163003 0.302391 -0.0107172)
(-8.5381e-06 0.242692 -0.0134911)
(-0.000991585 0.190158 -0.0138438)
(-0.00148496 0.147869 -0.0126113)
(-0.00192871 0.116966 -0.0104723)
(-0.00232957 0.0964189 -0.00789436)
(-0.00264397 0.0838476 -0.00516519)
(-0.0028421 0.0765337 -0.0024632)
(-0.00291064 0.072097 8.5119e-05)
(-0.00285092 0.0687559 0.00237457)
(-0.00267438 0.0653299 0.00431051)
(-0.00239849 0.0611195 0.00580972)
(-0.00204634 0.0557869 0.00680536)
(-0.00164497 0.0492523 0.00725175)
(-0.00122412 0.0416135 0.0071273)
(-0.000815681 0.0330811 0.00643534)
(-0.000454106 0.0239236 0.00520224)
(-0.000177412 0.0144159 0.00347161)
(-1.74139e-05 0.0047903 0.00129317)
(0.00447996 0.362871 -0.00451126)
(-0.00162159 0.295036 -0.00978252)
(-7.4613e-05 0.230667 -0.0118471)
(-0.00117277 0.174517 -0.0116737)
(-0.00179014 0.130208 -0.0102422)
(-0.00232584 0.0986301 -0.00823635)
(-0.00279277 0.0781398 -0.00604442)
(-0.00314548 0.0658558 -0.00385727)
(-0.00335397 0.0588355 -0.00177093)
(-0.00340834 0.0546902 0.000150526)
(-0.00331387 0.0517331 0.00184847)
(-0.00308496 0.0489016 0.00326458)
(-0.00274446 0.0455871 0.00434416)
(-0.00232093 0.0414992 0.00504239)
(-0.00184722 0.0365622 0.00533016)
(-0.00135898 0.0308417 0.00519776)
(-0.000893503 0.0244888 0.0046559)
(-0.000489458 0.017696 0.00373338)
(-0.000187103 0.0106586 0.00247104)
(-1.7032e-05 0.00354112 0.00091171)
(0.00450412 0.359758 -0.00432961)
(-0.00166722 0.2848 -0.00866901)
(-0.000264054 0.213629 -0.00972022)
(-0.00152412 0.153524 -0.00890223)
(-0.00225507 0.108283 -0.00734556)
(-0.00284315 0.0774603 -0.00563755)
(-0.00332722 0.0581178 -0.00400638)
(-0.00366995 0.046722 -0.00250981)
(-0.00384593 0.040229 -0.00115303)
(-0.00385179 0.0364211 5.94332e-05)
(-0.00369945 0.0338416 0.00111045)
(-0.00340948 0.0316053 0.00197413)
(-0.00300831 0.0292194 0.00262239)
(-0.00252737 0.0264445 0.00303162)
(-0.00200148 0.0232029 0.00318781)
(-0.00146726 0.0195176 0.0030897)
(-0.000962234 0.0154709 0.00274933)
(-0.000525647 0.0111716 0.00219033)
(-0.000199851 0.00672973 0.00144229)
(-1.57931e-05 0.00223705 0.000531442)
(0.00461086 0.354549 -0.0041988)
(-0.00197524 0.263147 -0.00679846)
(-0.000884118 0.181865 -0.00665373)
(-0.00221032 0.120375 -0.00540772)
(-0.00292331 0.0785984 -0.00408025)
(-0.00340768 0.0522797 -0.00297068)
(-0.00375669 0.0365424 -0.00209268)
(-0.00397248 0.0274226 -0.00139782)
(-0.00403903 0.0221738 -0.000829431)
(-0.00395742 0.019053 -0.000348421)
(-0.00374072 0.0170114 5.90516e-05)
(-0.00340984 0.0154349 0.000389181)
(-0.00298918 0.0139815 0.000630799)
(-0.00250682 0.0124755 0.000773235)
(-0.00199388 0.0108414 0.000810953)
(-0.00148126 0.00906314 0.000746857)
(-0.000997229 0.00715938 0.000597513)
(-0.000570104 0.00516512 0.000395867)
(-0.000236308 0.00311603 0.000189674)
(-3.10879e-05 0.00103885 2.84184e-05)
(0.0034448 0.303351 -0.00196122)
(-0.00247611 0.179413 -0.00278619)
(-0.00169226 0.103477 -0.00274845)
(-0.00246933 0.0595137 -0.00226382)
(-0.00288746 0.0347476 -0.00195286)
(-0.00310317 0.0209765 -0.001712)
(-0.00318952 0.0133468 -0.00143468)
(-0.00317374 0.00909974 -0.00124143)
(-0.00308064 0.00669531 -0.00116805)
(-0.00292534 0.00528478 -0.00114857)
(-0.00271882 0.00440165 -0.00114745)
(-0.00247091 0.00378799 -0.00114805)
(-0.0021928 0.00330158 -0.00114279)
(-0.00189377 0.00286576 -0.00112642)
(-0.00158292 0.00244143 -0.00109299)
(-0.00127114 0.00201155 -0.00105208)
(-0.000970168 0.00157215 -0.00101592)
(-0.000688902 0.00112584 -0.000955529)
(-0.000426261 0.000676295 -0.000784238)
(-0.00014333 0.00022538 -0.000383827)
)
;

boundaryField
{
    inner_wall
    {
        type            rotatingWallVelocity;
        origin          ( 0 0 0 );
        axis            ( 0 0 1 );
        omega           -4.04328;
        value           nonuniform List<vector> 40{(0 0.397557 0)};
    }
    outer_wall
    {
        type            rotatingWallVelocity;
        origin          ( 0 0 0 );
        axis            ( 0 0 1 );
        omega           constant 0;
        value           uniform ( 0 0 0 );
    }
    top
    {
        type            fixedValue;
        value           uniform ( 0 0 -0.001462 );
    }
    bottom
    {
        type            inletOutlet;
        inletValue      uniform ( 0 0 0 );
        value           nonuniform List<vector> 
20
(
(0 0 0)
(0 0 0)
(0 0 0)
(0 0 0)
(0 0 0)
(0 0 0)
(0 0 0)
(0 0 0)
(0 0 0)
(0 0 0)
(0 0 0)
(-0.00220604 0.106617 -0.00358676)
(-0.00147637 0.120918 -0.0104434)
(-0.000949265 0.125041 -0.0164015)
(-0.000568874 0.1208 -0.0207224)
(-0.000252539 0.109282 -0.0228353)
(1.81609e-05 0.0914161 -0.0223471)
(0.00019622 0.0685098 -0.0191517)
(0.000203706 0.0422209 -0.0134176)
(5.86128e-05 0.0141893 -0.00529458)
)
;
    }
    front
    {
        type            wedge;
    }
    back
    {
        type            wedge;
    }
}


// ************************************************************************* //
