/*--------------------------------*- C++ -*----------------------------------*\
| =========                 |                                                 |
| \\      /  F ield         | OpenFOAM: The Open Source CFD Toolbox           |
|  \\    /   O peration     | Version:  2506                                  |
|   \\  /    A nd           | Website:  www.openfoam.com                      |
|    \\/     M anipulation  |                                                 |
\*---------------------------------------------------------------------------*/
FoamFile
{
    version     2.0;
    format      ascii;
    arch        "LSB;label=32;scalar=64";
    class       volScalarField;
    location    "5";
    object      C;
}
// * * * * * * * * * * * * * * * * * * * * * * * * * * * * * * * * * * * * * //

dimensions      [0 0 0 0 0 0 0];

internalField   nonuniform List<scalar> 
800
(
-1.31807283e-08
-4.05899932e-08
8.70213554e-07
2.88085395e-06
-2.47727888e-06
-3.09921966e-05
-8.74936669e-05
-0.000148581326
-0.000164368613
-7.1941103e-05
0.000211150477
0.000845652768
0.00214984332
0.00360784952
0.00567114187
0.00843866979
0.0118011654
0.015706719
0.0197404141
0.0228510852
-9.52210431e-10
3.58876015e-07
-6.08151305e-07
-8.67766145e-06
-1.38929398e-05
2.90963516e-05
0.000182938973
0.000481935238
0.000888209623
0.00128905438
0.00159102312
0.00202167313
0.00327780329
0.00602180324
0.00971468677
0.0136317734
0.0173109974
0.0207104387
0.0232393916
0.0244288701
2.11493009e-07
-3.82493777e-07
-7.805353e-06
-1.70775746e-05
1.64121549e-05
0.000160370117
0.000430468259
0.000702112859
0.000696132508
0.000234205618
-6.85860352e-05
0.000911042983
0.00359243247
0.00755712993
0.0118671532
0.0156836267
0.0186647172
0.021162832
0.0230768604
0.0240871245
7.00716957e-08
-1.76491001e-08
-6.82715855e-06
-1.89644654e-05
1.19054521e-05
0.000155630348
0.000412384749
0.000635598349
0.000551443424
0.000218891941
0.000100320272
0.0016132111
0.00485767199
0.00909199671
0.01351089
0.0172335279
0.0198468321
0.0218200985
0.023421716
0.0242949664
-1.65619288e-08
1.06572756e-06
-4.88442069e-07
-1.6723261e-05
-1.64922255e-05
9.11304697e-05
0.000332125461
0.00057087279
0.000578290667
0.000327453703
0.00121428604
0.00373206562
0.00744135573
0.0118155042
0.0161374857
0.0195119057
0.0215850181
0.0229897876
0.0239796744
0.0244752364
-1.38715745e-06
-6.00580039e-07
-4.05050929e-06
-2.22626961e-05
-3.08398052e-06
0.000144471079
0.000390722467
0.000526485262
0.000397452671
0.00143128239
0.00354599467
0.00659160478
0.0105390089
0.0149538684
0.0189776955
0.0217271477
0.0230998126
0.0240705363
0.0245649186
0.0247117304
-4.98645387e-06
-7.51234913e-06
-3.47449555e-06
3.16028315e-05
0.000164275985
0.000379017668
0.000525924234
0.000692069837
0.00155672037
0.00276695584
0.00473962593
0.00810616388
0.0125529858
0.0171426138
0.0208811137
0.0231347398
0.0240949491
0.0249751454
0.0250268222
0.0250300741
-5.19625422e-06
-9.92408493e-06
1.90365065e-05
0.000117388752
0.000272878949
0.000367306959
0.000411480619
0.000472744022
-1.97439367e-06
0.000230872308
0.00283940589
0.00705236791
0.0119248188
0.0166360293
0.0204735595
0.0230202126
0.0244131985
0.0254920029
0.0256765735
0.0257241625
-3.75740474e-06
-1.41213097e-05
3.01672857e-05
0.000208369182
0.000381485618
7.32234951e-05
-0.00142390922
-0.00420035082
-0.00592561281
-0.00487625803
-0.00197135843
0.00220961558
0.00720757245
0.0124366204
0.0171840031
0.0208584452
0.0233434042
0.0250632379
0.026655266
0.0263830704
-6.83075863e-06
-1.87400976e-05
6.10493069e-05
0.000302865502
4.28521167e-05
-0.00203237724
-0.00640008752
-0.0107759795
-0.0125058969
-0.0118194319
-0.00939601997
-0.00557824048
-0.000672602642
0.00503900324
0.0109852071
0.0162768426
0.0202612187
0.0230137589
0.0253037249
0.0284535756
-9.754496e-06
-1.64153303e-05
0.000107999963
0.000280896525
-0.000819468481
-0.00481482204
-0.0110208252
-0.0161652229
-0.0184103812
-0.0182690159
-0.0163702628
-0.0131991242
-0.00903685082
-0.00377705475
0.00272938874
0.00977119851
0.0158666123
0.020091171
0.0227043508
0.024193218
-4.73561086e-06
-1.47528739e-06
0.000117494973
0.000118086423
-0.00163337786
-0.00646484409
-0.0131348463
-0.0185495885
-0.0212931623
-0.0217940915
-0.0204372751
-0.0176675448
-0.0142679669
-0.0105889514
-0.00549725661
0.00211228111
0.0106099975
0.0171693234
0.0208667925
0.0233751223
-3.47055268e-06
2.51043541e-05
0.000112989392
-0.000135947112
-0.00223651437
-0.00684183092
-0.0127774972
-0.0180655318
-0.0213609549
-0.022912855
-0.0225683208
-0.0201426539
-0.0160940012
-0.0128760428
-0.0106923772
-0.00513973599
0.00478007133
0.0144876611
0.0195609341
0.0206542892
1.2425476e-05
0.000106445691
0.000202312845
-0.000123286443
-0.0020871931
-0.00602364002
-0.010868095
-0.0154382298
-0.0189181727
-0.0213369282
-0.022794318
-0.0227730648
-0.0185855838
-0.0133374305
-0.0120410406
-0.00978078485
-0.000665413904
0.0118828482
0.0196959726
0.0199196719
-0.000228747559
-0.000181471117
-1.61523761e-05
-0.000136171327
-0.00142966455
-0.00429186852
-0.00810810348
-0.0120389305
-0.0155310764
-0.0184398414
-0.0207187997
-0.0216646922
-0.0192954565
-0.0148917734
-0.012389392
-0.0106151379
-0.00300744457
0.0101036215
0.020494382
0.021761135
0.00226995824
0.00138634848
0.00114155091
0.00101286752
0.000233773098
-0.00164204135
-0.00443477203
-0.00762448738
-0.0107247709
-0.013369271
-0.015294044
-0.015648424
-0.0143401091
-0.0130162385
-0.0117402432
-0.00800671166
0.000278132833
0.011543836
0.0216387921
0.0237287966
-0.0112052982
-0.00641051616
-0.0044853818
-0.00407271532
-0.00414665783
-0.00469418479
-0.00568643432
-0.00696264287
-0.00830285486
-0.00948204795
-0.0103065108
-0.0105735385
-0.0103535907
-0.00833566652
-0.00419067763
0.00201405615
0.00966709053
0.0174796408
0.0239249689
0.0253645657
0.030963765
0.0343869264
0.0355757191
0.0342930379
0.0320395739
0.0297671595
0.027830232
0.0262968811
0.0251506976
0.0243670198
0.0239465169
0.0238249442
0.0240437207
0.0243922731
0.0248288237
0.0253448177
0.0259361668
0.0265643626
0.0273477946
0.026222775
0.0805950508
0.0677756932
0.0523930493
0.0384378123
0.0273982735
0.0195165491
0.0143265303
0.0111337411
0.00931184298
0.00840481999
0.00806092774
0.00830351831
0.00920179575
0.0108569389
0.0133438458
0.016660007
0.020582716
0.0244666542
0.02729635
0.0254389874
0.0693571513
0.0513631199
0.0308604659
0.0141207502
0.0032061779
-0.00241793567
-0.00419051289
-0.003569471
-0.001844045
-0.000106195885
0.000466954201
0.000659232992
0.00220679509
0.00622755114
0.0116317716
0.0168757006
0.021583511
0.0253762959
0.0262839885
0.0225730434
0.0666474927
0.0453366235
0.0266381365
0.01380524
0.00662848312
0.00359397848
0.00349719728
0.0054136974
0.00815149873
0.0103940662
0.0112927056
0.0121695774
0.0142224169
0.0169882081
0.0199462961
0.0225422787
0.0243977342
0.024929371
0.0233722797
0.0203353734
0.0685448705
0.0560722862
0.0445564274
0.0351386626
0.0279542111
0.0226289689
0.0188520773
0.0163795642
0.0150381076
0.0146813613
0.0150300823
0.015557563
0.0161594207
0.0167884458
0.0173731043
0.017830941
0.0180743039
0.0180651839
0.0180215918
0.0187463506
0.0765243603
0.0796622072
0.0827985631
0.0852054357
0.0871369143
0.0886435558
0.0897617283
0.0905110301
0.0909138977
0.0910113455
0.0909556036
0.0909771264
0.0910018275
0.0909575868
0.0908336433
0.0905862194
0.0901679548
0.089523387
0.0885239698
0.0869511375
0.0784425748
0.0872382507
0.0963528693
0.102920842
0.107611364
0.110874233
0.113102286
0.114583352
0.115504098
0.115948699
0.115911063
0.115363999
0.114980492
0.115210683
0.115230117
0.114950559
0.114301912
0.113205283
0.111686107
0.110074144
0.0803202065
0.087307968
0.0969868234
0.105413211
0.11175982
0.116264195
0.119363723
0.121435181
0.122745663
0.123173394
0.122568774
0.118377988
0.110422905
0.110478739
0.111505368
0.111942647
0.111877841
0.111261818
0.110196402
0.109130273
0.0747127791
0.0796050904
0.0863696556
0.092714013
0.0980628495
0.102321355
0.105560098
0.107902749
0.109474027
0.110374982
0.110777523
0.110962426
0.111220695
0.111556322
0.111877122
0.112073738
0.11201575
0.111572847
0.110695715
0.109571482
0.116126992
0.114934356
0.113675088
0.112477267
0.111442225
0.110628032
0.110030903
0.109613843
0.109334459
0.109159372
0.109071936
0.109058932
0.109056167
0.109051439
0.109044186
0.10903851
0.109042831
0.109064322
0.109139972
0.109174088
0.151607001
0.141639269
0.129752573
0.119010521
0.110114886
0.103169748
0.0980343784
0.0944462362
0.0920764373
0.090573641
0.0895879038
0.0889777103
0.0890739168
0.0900722581
0.0920919829
0.0950899571
0.0988432495
0.102938865
0.106772567
0.108838458
0.144494064
0.132599283
0.117512816
0.103946207
0.0931965179
0.0852151704
0.0796173889
0.075983698
0.0738667064
0.0728556105
0.0716997756
0.0725381673
0.0831908436
0.0853220855
0.0885766819
0.0929075149
0.0979788465
0.103042392
0.106985349
0.108665222
0.146130708
0.135000597
0.123275346
0.113322347
0.105399457
0.0993974591
0.095106182
0.0922963723
0.0907208013
0.0901064867
0.0901689272
0.0906590049
0.0917276119
0.0931653008
0.0954806856
0.0985271153
0.101996991
0.105286854
0.107626045
0.10847804
0.15009317
0.150760415
0.151441319
0.151856751
0.151907039
0.151547336
0.150801547
0.149700803
0.148206823
0.146145278
0.143483607
0.140219242
0.136225924
0.131711328
0.126837494
0.121868208
0.1171472
0.113075673
0.109980343
0.108037579
0.156312141
0.177371178
0.204735614
0.231260645
0.253772385
0.271133075
0.283164087
0.290274219
0.293016828
0.292595578
0.288814367
0.281933721
0.271796898
0.258339881
0.24094797
0.218654621
0.191040486
0.160102191
0.131716501
0.114228235
0.156423096
0.183297333
0.223020065
0.26235517
0.296103193
0.322289829
0.341848465
0.356257876
0.366043809
0.370706003
0.36938503
0.362361376
0.350184919
0.334412267
0.31581106
0.292345472
0.258171053
0.209691392
0.156597992
0.120615806
0.159977969
0.179999234
0.212943405
0.249885439
0.284583224
0.313811574
0.336911556
0.354412455
0.366789879
0.37390148
0.375408348
0.370071654
0.357973141
0.340717793
0.322306056
0.305717704
0.283901655
0.241651093
0.179303413
0.126332366
0.117188328
0.133785417
0.15663174
0.181591432
0.206179377
0.228546939
0.24772688
0.26340644
0.275480581
0.283691335
0.288091502
0.288116766
0.285414545
0.281481006
0.275626443
0.265370643
0.246555185
0.21542616
0.170504579
0.12417175
0.492332678
0.410906299
0.32353682
0.248178011
0.190694899
0.151341926
0.12784329
0.116390704
0.11377303
0.116196088
0.120591806
0.125962967
0.130557675
0.132888692
0.132629689
0.129881222
0.125093728
0.119062103
0.112802515
0.108290335
0.62603648
0.306155569
-0.0345420822
-0.297023482
-0.471331127
-0.573545028
-0.631267872
-0.66367269
-0.679264074
-0.679190246
-0.658863725
-0.621007138
-0.568314459
-0.502296909
-0.422959032
-0.329693173
-0.223419159
-0.10868599
0.00379822462
0.0852572618
0.569078721
0.109870804
-0.318096424
-0.586108058
-0.709359846
-0.744124725
-0.791926525
-0.83511132
-0.858139355
-0.861169047
-0.857589481
-0.845919386
-0.819474019
-0.768989149
-0.683236709
-0.552200687
-0.379685396
-0.190476573
-0.0198661077
0.0818243852
0.566636712
-0.0240189219
-0.395219326
-0.571003398
-0.623332312
-0.635685997
-0.766389875
-0.840915934
-0.880953602
-0.882616127
-0.8665209
-0.835123912
-0.78143038
-0.699832331
-0.585980872
-0.440724356
-0.275053473
-0.111701763
0.0202298811
0.0913627714
0.752733814
0.434725649
0.180561195
-0.0104769841
-0.14958116
-0.237998924
-0.248047838
-0.2671192
-0.274430972
-0.273220082
-0.261983078
-0.241531719
-0.212047646
-0.17422166
-0.128813302
-0.0772355775
-0.0222903327
0.030883682
0.0742972694
0.0982204102
)
;

boundaryField
{
    inner_wall
    {
        type            zeroGradient;
    }
    outer_wall
    {
        type            zeroGradient;
    }
    top
    {
        type            codedFixedValue;
        value           nonuniform List<scalar> 
20
(
1
1
1
1
1
0
0
0
0
0
0
0
0
0
0
0
0
0
0
0
)
;
        name            topInletC;
        code            #{
            const vectorField& Cf = patch().Cf();
            scalarField& field = *this;
            const scalar Rin  = 0.038;
            const scalar Rout = 0.04035;
            const scalar Rcut = Rin + 0.25 * (Rout - Rin);  // 1/4 of gap

            forAll(Cf, i)
            {
                scalar r = sqrt(sqr(Cf[i].x()) + sqr(Cf[i].y()));
                field[i] = (r <= Rcut) ? 1.0 : 0.0;
            }
        #};
    }
    bottom
    {
        type            inletOutlet;
        inletValue      uniform 0;
        value           nonuniform List<scalar> 
20
(
0
0
0
0
0
0
0
0
0
0
0
0
0
0.00360784952
0.00567114187
0.00843866979
0.0118011654
0.015706719
0.0197404141
0.0228510852
)
;
    }
    front
    {
        type            wedge;
    }
    back
    {
        type            wedge;
    }
}


// ************************************************************************* //
