/*--------------------------------*- C++ -*----------------------------------*\
| =========                 |                                                 |
| \\      /  F ield         | OpenFOAM: The Open Source CFD Toolbox           |
|  \\    /   O peration     | Version:  2506                                  |
|   \\  /    A nd           | Website:  www.openfoam.com                      |
|    \\/     M anipulation  |                                                 |
\*---------------------------------------------------------------------------*/
FoamFile
{
    version     2.0;
    format      ascii;
    arch        "LSB;label=32;scalar=64";
    class       volScalarField;
    location    "5";
    object      p;
}
// * * * * * * * * * * * * * * * * * * * * * * * * * * * * * * * * * * * * * //

dimensions      [0 2 -2 0 0 0 0];

internalField   nonuniform List<scalar> 
800
(
-0.00512634131
-0.00343681367
-0.00371755004
-0.00364489286
-0.00351694274
-0.00334332235
-0.00310633449
-0.00279259298
-0.00242432857
-0.00206416795
-0.00176064586
-0.0015101339
-0.00126424449
-0.000829799063
-0.000185421133
0.000634082679
0.00155900571
0.00248124779
0.00320293434
0.00353806703
-0.0110738956
-0.00477967261
-0.00585544108
-0.0057451922
-0.00573806383
-0.00575863617
-0.00578535204
-0.00575630169
-0.00554477282
-0.00502813173
-0.00417295766
-0.0030719467
-0.00189494932
-0.000732280138
0.00036993464
0.00136848873
0.00220909568
0.00283161343
0.00319526246
0.00331392349
-0.0122593682
-0.00451937958
-0.00598672337
-0.00574188506
-0.00593978871
-0.00622116997
-0.00653110256
-0.00671946324
-0.00658666408
-0.00608235615
-0.00531961781
-0.00436848316
-0.00318586901
-0.00174199451
-0.000218819374
0.0012081625
0.00239016861
0.00323849913
0.00371258759
0.00382882633
-0.0158307137
-0.00555283884
-0.00661637561
-0.00625614513
-0.00652436336
-0.00671575955
-0.00690627595
-0.00691919984
-0.00667425002
-0.00620682278
-0.00556153735
-0.00465615933
-0.00334972588
-0.00168807235
6.88962788e-05
0.00164899456
0.0028974484
0.00376479778
0.00424895301
0.00439670101
-0.0223014303
-0.00775002212
-0.00639363861
-0.00619495548
-0.00620445374
-0.00624542371
-0.0062336199
-0.00610854345
-0.00585514184
-0.00547300925
-0.00487589625
-0.00386445416
-0.00240552568
-0.000714582548
0.000914061589
0.00228172799
0.00330967945
0.00400044322
0.00438186258
0.00450665713
-0.0217021278
-0.00928489994
-0.00777683319
-0.00676847673
-0.00644773793
-0.00618615253
-0.00591459241
-0.00561699908
-0.00530239816
-0.00472895322
-0.00376153765
-0.00242745831
-0.000957882859
0.000422051786
0.0015948503
0.00252314307
0.00321037185
0.00367615383
0.00393756816
0.00402453667
-0.0181477523
-0.00919646578
-0.00893931631
-0.00810478373
-0.0077025695
-0.00731851803
-0.00690316384
-0.00633692347
-0.00539509806
-0.00403355684
-0.00253425899
-0.00114631167
1.70610852e-05
0.000951968394
0.00169144911
0.00226612965
0.00269785737
0.00299380334
0.00315412789
0.00319979159
-0.0178394406
-0.00977618976
-0.0104733641
-0.0100131542
-0.00983601718
-0.00949438931
-0.00877437619
-0.00745281787
-0.00569192444
-0.00392978925
-0.00240272285
-0.00112323312
-6.85411488e-05
0.000775237064
0.00142498353
0.00190695439
0.00224656538
0.00246117843
0.00256719626
0.0025884561
-0.0219973727
-0.012693858
-0.0137599948
-0.0133516001
-0.013199539
-0.0125889669
-0.0112831775
-0.00946535205
-0.00759439293
-0.00586033143
-0.0042668918
-0.00280146281
-0.00146955429
-0.000296520112
0.000670375497
0.001378826
0.00181485545
0.00202995832
0.00210823062
0.00210618895
-0.0287499399
-0.0175479034
-0.0184797199
-0.0179479731
-0.0177142785
-0.0168083217
-0.0152371968
-0.0134358459
-0.0117183209
-0.010082513
-0.0084656922
-0.00682013195
-0.00511787639
-0.00337056076
-0.00167110616
-0.000216663265
0.0007746049
0.00125372226
0.00138089457
0.00132021951
-0.0357111866
-0.0232226115
-0.023526932
-0.0227830315
-0.0224939428
-0.0214628689
-0.019924712
-0.0183524161
-0.0168873502
-0.0154532659
-0.0139790701
-0.0123943369
-0.0106307429
-0.00861990273
-0.00634137582
-0.00394425619
-0.0018440947
-0.000534160758
-0.000100948909
-0.000197755934
-0.0415266768
-0.0281275784
-0.0275677553
-0.0266343852
-0.0263154519
-0.0251939384
-0.0237607714
-0.0223756985
-0.0210815765
-0.0197918041
-0.0184394496
-0.0169913721
-0.0154171987
-0.0136411498
-0.011512972
-0.00889393469
-0.00593964614
-0.00342347505
-0.00224362632
-0.00218410074
-0.0448605571
-0.0310962171
-0.0299789091
-0.0289072629
-0.0282430524
-0.0271866984
-0.025855868
-0.0245618196
-0.023333829
-0.0220784337
-0.0207373739
-0.0193233191
-0.017864778
-0.0163420969
-0.0146250938
-0.0124235311
-0.00944564213
-0.00603197243
-0.00369111324
-0.00318522386
-0.0466305961
-0.03177689
-0.0298997123
-0.0286671679
-0.0278901943
-0.0270581915
-0.0259665134
-0.0247642883
-0.0235464674
-0.0222875115
-0.0209421167
-0.0195028986
-0.0179893859
-0.0164424929
-0.0148394278
-0.0129656179
-0.0103818578
-0.00688071308
-0.00346491854
-0.00222172426
-0.0481693558
-0.0318045771
-0.0281323884
-0.0263211375
-0.0250778296
-0.0242041639
-0.0233112919
-0.0222606254
-0.0210895416
-0.0198236167
-0.0184566508
-0.0169994563
-0.0155156484
-0.0140630214
-0.0126214055
-0.0110188454
-0.00888091438
-0.00580528505
-0.00186188264
0.000223592844
-0.0447126002
-0.0301532683
-0.0265538789
-0.0234028043
-0.0212958366
-0.0201544045
-0.0193207002
-0.0184629187
-0.017527891
-0.0165106982
-0.0153976221
-0.0141834093
-0.0128615592
-0.011418135
-0.00976156103
-0.00768090373
-0.00486402505
-0.00110199221
0.00359013368
0.0072030017
-0.0385198506
-0.025171755
-0.0213594079
-0.017258094
-0.0149409425
-0.0138833883
-0.0133556917
-0.0129622447
-0.0125369765
-0.0119768633
-0.0111788577
-0.0100426674
-0.00846345924
-0.00613372059
-0.002716085
0.00200429504
0.0080329419
0.0150062885
0.0222285065
0.0278171873
-0.0474573447
-0.0279277738
-0.0195871895
-0.0164108393
-0.0139860184
-0.01189098
-0.0104541873
-0.00936784674
-0.00806955181
-0.00619394248
-0.00356213741
-6.5207052e-05
0.00446387502
0.0100618611
0.0168121464
0.0246239528
0.0331896735
0.0418871861
0.0499882394
0.055674421
-0.0438365568
-0.0274597176
-0.0234314038
-0.0214876572
-0.0194257533
-0.0175191535
-0.0158593805
-0.0141620518
-0.0122020388
-0.00991019392
-0.00727135997
-0.00421994397
-0.000648568884
0.0035071792
0.00831901623
0.013843072
0.0200322546
0.0266228518
0.033190323
0.0379622508
-0.0466792232
-0.0337989477
-0.0318482315
-0.0303350328
-0.0284083369
-0.0262711653
-0.0239396681
-0.0213575025
-0.0185121312
-0.0154209138
-0.0121128996
-0.0086330094
-0.00503314308
-0.00135391698
0.00251746763
0.00678834675
0.0115953701
0.0169094712
0.0224385601
0.0253480075
-0.0381995017
-0.0306223999
-0.0305367529
-0.0292072247
-0.0278931746
-0.0263698472
-0.0245759057
-0.022454638
-0.0199547319
-0.0170393819
-0.0136963095
-0.00996340436
-0.00594038561
-0.00165711235
0.00293570556
0.00789443577
0.01312666
0.0181265701
0.021726298
0.0228880907
-0.0226594596
-0.0175502544
-0.0169048348
-0.0162532883
-0.0156251935
-0.014805962
-0.0137047947
-0.0122422425
-0.0103155331
-0.00781703608
-0.0047799292
-0.00122009372
0.0028308015
0.00731377467
0.0121234411
0.0169956093
0.021356248
0.0244099486
0.0257038376
0.0256689001
-0.0129141042
-0.00911776701
-0.00890699497
-0.00896891423
-0.00922863275
-0.00931305125
-0.0090371121
-0.00823053375
-0.00675198921
-0.00457488775
-0.00178072049
0.00160976161
0.00555132852
0.009961367
0.0146582603
0.0192673942
0.023151122
0.0256170793
0.0264969213
0.0263437182
-0.0292160612
-0.0232258494
-0.0233549125
-0.0230996031
-0.0228536282
-0.0222882185
-0.0211844225
-0.019365211
-0.0167771277
-0.0135460522
-0.00994605246
-0.00626226673
-0.00250114948
0.00151220056
0.00593955743
0.0107756121
0.0157364567
0.0200874224
0.0227205438
0.0233262897
-0.040447257
-0.0297380791
-0.0289324038
-0.0278151667
-0.0264903114
-0.0249766015
-0.023069704
-0.0206640829
-0.0177842619
-0.0145656627
-0.0112468002
-0.00807292098
-0.00512604711
-0.00218209162
0.00125282494
0.00538405879
0.0102447832
0.015573942
0.0204694984
0.0228929529
-0.0395656524
-0.0250135132
-0.0226854527
-0.0212690098
-0.0197479431
-0.0183968616
-0.0171000183
-0.0155545668
-0.0136040395
-0.0112558294
-0.0086142564
-0.00578463508
-0.00265276727
0.00103244851
0.00557408759
0.0110912842
0.0174035783
0.0240505354
0.0305397104
0.0352070408
-0.0453237919
-0.0259927713
-0.0187794705
-0.0175513717
-0.016416215
-0.0147125442
-0.0131073292
-0.0115313745
-0.00952488551
-0.00682235586
-0.00338416519
0.000778123147
0.00565498295
0.0114120782
0.0181185862
0.0256409543
0.033643214
0.0415576811
0.0487961124
0.05385328
-0.0396654015
-0.0256014653
-0.0235506328
-0.0219497972
-0.0201296643
-0.0183799847
-0.0165764025
-0.0144950468
-0.0120905412
-0.00946165625
-0.00673715254
-0.00400491991
-0.00115510403
0.00216940463
0.00635415423
0.0115277683
0.0175069945
0.0238756919
0.0301794958
0.034721632
-0.039579989
-0.0295368217
-0.0287586939
-0.0274281566
-0.0258160822
-0.0239094831
-0.0215613824
-0.01875806
-0.0155927236
-0.0122439445
-0.00890681631
-0.00572672511
-0.0027467811
0.00026943431
0.00366627755
0.00767319649
0.0123201071
0.0173490587
0.0218621247
0.0240239457
-0.0271641448
-0.0216746481
-0.021487759
-0.0210836061
-0.0205999891
-0.0197048806
-0.0182280535
-0.0160849738
-0.0133199388
-0.010105784
-0.00669094648
-0.00321672852
0.000382733229
0.0043067001
0.00866032214
0.0133671267
0.018098483
0.0221371651
0.0244939804
0.0249834662
-0.0117083645
-0.00848224624
-0.00867939779
-0.00918883539
-0.00981461766
-0.0100814765
-0.00976264288
-0.00872661751
-0.00697833017
-0.00449859352
-0.00136110195
0.00231580808
0.00646243737
0.011005103
0.0157873121
0.0204323244
0.0242941273
0.0267069487
0.0275510831
0.0273737111
-0.029287739
-0.0243095799
-0.0241717497
-0.0238332785
-0.0232055905
-0.022031077
-0.0202811939
-0.0179987807
-0.0151894812
-0.0118524234
-0.00802576417
-0.00369990119
0.0010641504
0.00618965531
0.0115734998
0.0169507203
0.0217090518
0.0249943159
0.0263539369
0.0263139645
-0.0459964201
-0.0380901608
-0.0378658356
-0.0362157798
-0.0343172199
-0.0319813449
-0.029343641
-0.026526156
-0.0235232123
-0.0202200385
-0.016520791
-0.0124800561
-0.0081760272
-0.00363941306
0.00119832471
0.00644413865
0.012047253
0.0174812376
0.0214120419
0.022698
-0.0525607677
-0.0393516964
-0.0374760311
-0.0363103485
-0.0344563002
-0.0321469469
-0.0295379709
-0.0266728245
-0.0235659313
-0.020186828
-0.0164809693
-0.0124446121
-0.00820712671
-0.00386213411
0.000649013109
0.00550866333
0.010865999
0.0167308326
0.0226247153
0.0257595527
-0.0503390978
-0.0328376115
-0.0277627416
-0.0260989551
-0.0242582624
-0.0222466104
-0.0203307912
-0.0183048943
-0.0159050619
-0.0130304216
-0.00967514732
-0.00587540371
-0.00155905333
0.00331469773
0.00881053601
0.0149759705
0.0217227993
0.0287101905
0.0355097304
0.0404034525
-0.0520452718
-0.0322078522
-0.0243031474
-0.0219991569
-0.0199280012
-0.0175045326
-0.0152590322
-0.012990208
-0.0101572483
-0.00649219524
-0.00201254367
0.00321887574
0.00912242341
0.0156757624
0.0228409964
0.0304868591
0.0383855481
0.0461343706
0.0533171011
0.058339423
-0.0490998063
-0.034401895
-0.0316062334
-0.0300019124
-0.0276916883
-0.0250447324
-0.0222494092
-0.0191339411
-0.01556633
-0.0115382226
-0.00703384575
-0.00204952311
0.00332208515
0.00899577997
0.0149356372
0.0211330484
0.0275480822
0.0340191856
0.0402642778
0.044587347
-0.0537132096
-0.0443846986
-0.04380267
-0.0434314764
-0.041549148
-0.0384673683
-0.0344536453
-0.0296022089
-0.0240336609
-0.0179728406
-0.0117019849
-0.00554398691
0.000299890652
0.00578901924
0.0110050401
0.0161149395
0.0213066615
0.0266363824
0.0319703925
0.0346337108
-0.0380558385
-0.0359262174
-0.0375947458
-0.0383520741
-0.0382976538
-0.0372772507
-0.0351679785
-0.0318312141
-0.0272181611
-0.0215128624
-0.0151866544
-0.00867060376
-0.00222421965
0.00403949055
0.0101311804
0.0161155759
0.0219546253
0.0272321049
0.0309068827
0.0320330254
-0.016441054
-0.0162777158
-0.016746784
-0.0170620999
-0.0169703966
-0.0163341581
-0.0150640352
-0.013076754
-0.0103084228
-0.00680384871
-0.00258411815
0.00222499888
0.00741829809
0.012815876
0.0182798266
0.0236024053
0.0283064913
0.0316369994
0.0330896502
0.0330686026
)
;

boundaryField
{
    inner_wall
    {
        type            zeroGradient;
    }
    outer_wall
    {
        type            zeroGradient;
    }
    top
    {
        type            zeroGradient;
    }
    bottom
    {
        type            fixedValue;
        value           uniform 0;
    }
    front
    {
        type            wedge;
    }
    back
    {
        type            wedge;
    }
}


// ************************************************************************* //
