/*--------------------------------*- C++ -*----------------------------------*\
| =========                 |                                                 |
| \\      /  F ield         | OpenFOAM: The Open Source CFD Toolbox           |
|  \\    /   O peration     | Version:  2506                                  |
|   \\  /    A nd           | Website:  www.openfoam.com                      |
|    \\/     M anipulation  |                                                 |
\*---------------------------------------------------------------------------*/
FoamFile
{
    version     2.0;
    format      ascii;
    arch        "LSB;label=32;scalar=64";
    class       surfaceScalarField;
    location    "5";
    object      phi;
}
// * * * * * * * * * * * * * * * * * * * * * * * * * * * * * * * * * * * * * //

dimensions      [0 3 -1 0 0 0 0];

oriented        oriented;

internalField   nonuniform List<scalar> 
1540
(
-1.05031072e-09
2.09769363e-08
-2.50964261e-09
2.12322767e-08
-5.65208691e-09
2.38444586e-08
-9.27065613e-09
2.40667825e-08
-1.35772299e-08
2.44175103e-08
-1.85076082e-08
2.4724186e-08
-2.35014876e-08
2.46377189e-08
-2.73671604e-08
2.35581619e-08
-2.83772352e-08
2.07448991e-08
-2.46392631e-08
1.55466583e-08
-1.49722529e-08
7.72402782e-09
-4.45272185e-10
-2.08335975e-09
1.54922409e-08
-1.41493566e-08
2.9248428e-08
-2.62258172e-08
3.87614034e-08
-3.56535669e-08
4.26633258e-08
-4.11339892e-08
3.99979773e-08
-4.19592216e-08
3.03419201e-08
-3.81368894e-08
1.46403205e-08
-2.96630006e-08
-1.41982214e-08
9.93629857e-10
1.99832996e-08
-5.92129666e-09
2.81471926e-08
-1.42618111e-08
3.2184966e-08
-2.30869669e-08
3.2891925e-08
-3.23874841e-08
3.37180207e-08
-4.13243929e-08
3.36610808e-08
-4.8289996e-08
3.16033157e-08
-5.10691705e-08
2.63373233e-08
-4.78292357e-08
1.75049581e-08
-3.85781196e-08
6.29552644e-09
-2.55565477e-08
-5.2975519e-09
-1.10322769e-08
-1.66076507e-08
2.13007662e-09
-2.73117181e-08
1.26788331e-08
-3.67745915e-08
1.96183398e-08
-4.25930827e-08
2.19805836e-08
-4.34962451e-08
1.96325595e-08
-3.96112085e-08
1.34795555e-08
-3.19838999e-08
5.490089e-09
-2.16735498e-08
-8.70813494e-09
-4.83122911e-09
2.48144806e-08
-9.98544229e-09
3.33013591e-08
-1.33279474e-08
3.55274244e-08
-1.72916904e-08
3.6855623e-08
-2.09426398e-08
3.73689251e-08
-2.33384301e-08
3.60568275e-08
-2.35130024e-08
3.17778426e-08
-2.09173408e-08
2.3741617e-08
-1.64153764e-08
1.30029447e-08
-1.21021215e-08
1.98222025e-09
-8.63497731e-09
-8.76474628e-09
-4.56526151e-09
-2.06774178e-08
7.22621942e-10
-3.25996513e-08
5.35551122e-09
-4.14075258e-08
7.92813688e-09
-4.51657595e-08
8.00846778e-09
-4.35766105e-08
6.03035804e-09
-3.76331529e-08
3.09414438e-09
-2.90477374e-08
7.18454262e-10
-1.92979102e-08
-7.98968377e-09
5.5266156e-10
2.42617768e-08
-5.84029112e-10
3.44380093e-08
-7.02139447e-10
3.56454929e-08
-1.10126503e-09
3.72547071e-08
-8.01254166e-10
3.70688713e-08
2.18983083e-10
3.50365443e-08
2.04602901e-09
2.99507518e-08
4.03034823e-09
2.17572445e-08
5.18971778e-09
1.18435276e-08
5.79414078e-09
1.37773693e-09
8.67044479e-09
-1.16410961e-08
1.37360697e-08
-2.57430975e-08
1.87217781e-08
-3.75854042e-08
2.17125978e-08
-4.43983926e-08
2.19073407e-08
-4.53605541e-08
1.94359452e-08
-4.11052525e-08
1.49071033e-08
-3.31043705e-08
9.12580719e-09
-2.32664998e-08
3.33421382e-09
-1.35063763e-08
-4.65547314e-09
1.54793933e-08
8.78233518e-09
1.97440627e-08
3.01732953e-08
1.66006737e-08
3.87888372e-08
1.36386584e-08
4.02166778e-08
1.13158877e-08
3.9391596e-08
1.01961324e-08
3.61562492e-08
1.00837788e-08
3.00630571e-08
1.06543504e-08
2.11866138e-08
1.2369412e-08
1.01284163e-08
1.77841169e-08
-4.0370306e-09
2.5852338e-08
-1.97093607e-08
3.32693028e-08
-3.31601154e-08
3.73937371e-08
-4.17098806e-08
3.74966219e-08
-4.45013233e-08
3.39580464e-08
-4.18220298e-08
2.7627049e-08
-3.47742937e-08
1.96582799e-08
-2.51356619e-08
1.13272939e-08
-1.49355743e-08
4.00007251e-09
-6.17921648e-09
-6.55403647e-10
2.5904012e-09
6.19187585e-09
3.19776388e-09
2.95658811e-08
9.50411332e-10
4.10361383e-08
-2.31909669e-09
4.34861402e-08
-4.66298324e-09
4.1735432e-08
-5.27905095e-09
3.67722688e-08
-3.61901065e-09
2.84029649e-08
1.19242728e-09
1.63751196e-08
1.11117577e-08
2.09034491e-10
2.33241331e-08
-1.62494592e-08
3.34600361e-08
-2.98453061e-08
3.90876589e-08
-3.87877836e-08
4.02436358e-08
-4.28659003e-08
3.77607472e-08
-4.20184763e-08
3.2391921e-08
-3.64532555e-08
2.49165949e-08
-2.72990058e-08
1.65251875e-08
-1.67443138e-08
8.68709941e-09
-7.09754451e-09
2.85420291e-09
-3.4637807e-10
2.19879729e-09
-1.13198446e-08
1.75116841e-08
-1.86598313e-08
3.69058236e-08
-2.33077599e-08
4.56840404e-08
-2.62263333e-08
4.64046778e-08
-2.70894793e-08
4.25985545e-08
-2.47528367e-08
3.44355936e-08
-1.79477847e-08
2.15978876e-08
-6.60775724e-09
5.0350581e-09
5.15786154e-09
-1.15566109e-08
1.31032429e-08
-2.41948699e-08
1.66555662e-08
-3.33976547e-08
1.75254719e-08
-3.96577154e-08
1.70972398e-08
-4.24376975e-08
1.58562493e-08
-4.07775122e-08
1.36671157e-08
-3.4264159e-08
1.03366805e-08
-2.39685985e-08
6.24942351e-09
-1.26570966e-08
2.62825641e-09
-3.47641584e-09
3.7739531e-10
1.90444611e-09
2.57619268e-09
-1.25646857e-08
3.00763387e-08
-2.2969989e-08
4.73110794e-08
-2.9739489e-08
5.24535198e-08
-3.38602101e-08
5.05253634e-08
-3.48668866e-08
4.36052181e-08
-3.17949988e-08
3.13636851e-08
-2.56238755e-08
1.54267559e-08
-2.0928034e-08
3.39212582e-10
-2.03688941e-08
-1.21157555e-08
-2.2252548e-08
-2.2311207e-08
-2.39841057e-08
-3.16661006e-08
-2.41592526e-08
-3.94825556e-08
-2.22269865e-08
-4.43699696e-08
-1.81731701e-08
-4.48313185e-08
-1.25976029e-08
-3.98397315e-08
-6.87330693e-09
-2.96928918e-08
-2.72864302e-09
-1.68017607e-08
-8.92164942e-10
-5.31288915e-09
-3.19920139e-10
1.33220668e-09
2.2562761e-09
-7.67838306e-09
3.7754758e-08
-1.7968971e-08
5.76016623e-08
-2.62338128e-08
6.07184076e-08
-3.22999628e-08
5.65915155e-08
-3.56756303e-08
4.69809455e-08
-3.71281323e-08
3.28162119e-08
-3.99166938e-08
1.82153894e-08
-4.57402249e-08
6.16279621e-09
-5.30302669e-08
-4.82564315e-09
-5.92720865e-08
-1.60693218e-08
-6.35489123e-08
-2.73892133e-08
-6.50344481e-08
-3.79969547e-08
-6.26737984e-08
-4.67305619e-08
-5.55400385e-08
-5.19650217e-08
-4.3554279e-08
-5.18254283e-08
-2.83344705e-08
-4.49126566e-08
-1.35564865e-08
-3.15796691e-08
-3.58427309e-09
-1.52850282e-08
-4.23394138e-12
-2.24776088e-09
2.25204695e-09
-2.29126649e-09
4.00460695e-08
-1.06271993e-08
6.59375891e-08
-1.91289054e-08
6.92201668e-08
-2.64621342e-08
6.39247423e-08
-3.24731474e-08
5.29920282e-08
-3.89042479e-08
3.92473343e-08
-4.76070935e-08
2.69183162e-08
-5.76312316e-08
1.61869896e-08
-6.73686274e-08
4.91183517e-09
-7.6345212e-08
-7.09265866e-09
-8.40844825e-08
-1.96498694e-08
-8.95891602e-08
-3.24921961e-08
-9.13239198e-08
-4.49957342e-08
-8.7346496e-08
-5.59423771e-08
-7.59950465e-08
-6.31768043e-08
-5.71736935e-08
-6.37339613e-08
-3.38851747e-08
-5.48680988e-08
-1.2818e-08
-3.63521136e-08
-1.33490219e-09
-1.37307674e-08
9.1714873e-10
1.64518765e-09
3.84009248e-08
-2.46612363e-09
7.00488891e-08
-9.13710194e-09
7.58911962e-08
-1.59292488e-08
7.07168761e-08
-2.26623636e-08
5.9725212e-08
-3.03121807e-08
4.68971567e-08
-3.92060031e-08
3.58122208e-08
-4.84182482e-08
2.53992729e-08
-5.76943493e-08
1.41880258e-08
-6.68075476e-08
2.02061201e-09
-7.58527112e-08
-1.06046231e-08
-8.44340499e-08
-2.39107755e-08
-9.15310205e-08
-3.78986916e-08
-9.50091134e-08
-5.24642159e-08
-9.18189549e-08
-6.63668953e-08
-7.91079424e-08
-7.64449331e-08
-5.63657459e-08
-7.76102247e-08
-2.82664391e-08
-6.44513561e-08
-5.89655109e-09
-3.61005858e-08
-4.9794013e-09
5.06538639e-09
3.33355682e-08
5.92803197e-09
6.91862175e-08
2.44028953e-09
7.93789733e-08
-2.65031703e-09
7.58074422e-08
-7.99719839e-09
6.50721414e-08
-1.42858889e-08
5.31858098e-08
-2.10061215e-08
4.25325085e-08
-2.76939468e-08
3.20870817e-08
-3.4298021e-08
2.0792164e-08
-4.10063938e-08
8.72900346e-09
-4.79785207e-08
-3.63243545e-09
-5.57701425e-08
-1.61191122e-08
-6.46026629e-08
-2.9066123e-08
-7.34050474e-08
-4.36617903e-08
-7.9448584e-08
-6.03233247e-08
-7.84793662e-08
-7.74141302e-08
-6.61203463e-08
-8.99692225e-08
-4.1502722e-08
-8.90689675e-08
-1.29134562e-08
-6.46898361e-08
-1.78928596e-08
4.90421067e-09
2.84313061e-08
1.09479536e-08
6.31424043e-08
1.31769282e-08
7.71499493e-08
1.21348613e-08
7.68494181e-08
9.08845514e-09
6.81184984e-08
5.0838137e-09
5.71903392e-08
8.30548102e-10
4.6785723e-08
-3.42428269e-09
3.63417969e-08
-7.72311386e-09
2.50909552e-08
-1.21352161e-08
1.31410105e-08
-1.68631794e-08
1.09549711e-09
-2.28559007e-08
-1.01264469e-08
-3.05860774e-08
-2.13359715e-08
-3.97748942e-08
-3.44729987e-08
-4.95118124e-08
-5.05864353e-08
-5.70630849e-08
-6.98628695e-08
-5.72625029e-08
-8.97698417e-08
-4.45081742e-08
-1.01823331e-07
-1.91673674e-08
-9.00306789e-08
-3.70602294e-08
8.3152936e-09
2.01159668e-08
2.00866574e-08
5.13710132e-08
2.84483516e-08
6.87882041e-08
3.18529949e-08
7.3444723e-08
3.17430166e-08
6.82284157e-08
3.00208836e-08
5.89123816e-08
2.78758776e-08
4.89306589e-08
2.53881717e-08
3.88293799e-08
2.22139391e-08
2.82651204e-08
1.80823816e-08
1.72724284e-08
1.26991036e-08
6.4787092e-09
6.1567327e-09
-3.58420038e-09
-4.39315376e-10
-1.47399789e-08
-7.582213e-09
-2.73301812e-08
-1.60891029e-08
-4.20795968e-08
-2.55849453e-08
-6.03670569e-08
-3.33945183e-08
-8.19603209e-08
-3.38876652e-08
-1.01330223e-07
-2.01281066e-08
-1.03790278e-07
-5.71883371e-08
1.44945536e-08
5.62137563e-09
3.03097777e-08
3.5555802e-08
4.22933249e-08
5.68046094e-08
5.10995136e-08
6.46385258e-08
5.60786897e-08
6.32491764e-08
5.82231107e-08
5.67679082e-08
5.88411141e-08
4.83125817e-08
5.83185067e-08
3.93518892e-08
5.63160461e-08
3.02675085e-08
5.24449171e-08
2.11434228e-08
4.68740472e-08
1.204951e-08
4.09036166e-08
2.38609015e-09
3.41073272e-08
-7.94374209e-09
2.64099846e-08
-1.96329382e-08
1.76424942e-08
-3.33121502e-08
7.8586137e-09
-5.05832096e-08
-2.78333839e-09
-7.13184054e-08
-1.27391034e-08
-9.13744781e-08
-1.48561162e-08
-1.01673282e-07
-7.20444521e-08
-1.19774486e-09
6.81910474e-09
7.87132527e-09
2.6486798e-08
2.37720958e-08
4.09038036e-08
4.04494897e-08
4.79611757e-08
5.41869444e-08
4.95116644e-08
6.41467039e-08
4.68081449e-08
7.08255191e-08
4.16337005e-08
7.47867327e-08
3.53906197e-08
7.62903836e-08
2.87637955e-08
7.55531544e-08
2.1880551e-08
7.30049005e-08
1.45977126e-08
6.89262021e-08
6.46467168e-09
6.36663981e-08
-2.68396556e-09
5.69856583e-08
-1.29522793e-08
4.93640232e-08
-2.56905239e-08
4.02854102e-08
-4.15046055e-08
2.82386347e-08
-5.92716265e-08
1.27871294e-08
-7.59229493e-08
-1.90031692e-09
-8.69858102e-08
-7.39447647e-08
-1.43966333e-08
2.1215801e-08
-1.05370605e-08
2.26273691e-08
1.08041254e-08
1.95626581e-08
3.61501586e-08
2.26152583e-08
6.15851575e-08
2.40766695e-08
8.48210815e-08
2.35722793e-08
1.04435684e-07
2.20190902e-08
1.19965013e-07
1.98612931e-08
1.31588065e-07
1.71407383e-08
1.3970894e-07
1.3759634e-08
1.44654134e-07
9.65252606e-09
1.46195957e-07
4.92278685e-09
1.43913765e-07
-4.01739425e-10
1.3919619e-07
-8.23474159e-09
1.30428281e-07
-1.69225629e-08
1.15207086e-07
-2.6283388e-08
9.16829698e-08
-3.57474481e-08
6.02038566e-08
-4.44437595e-08
2.46602013e-08
-5.1442074e-08
-4.9284558e-08
3.38850281e-08
-1.26691549e-08
8.09489436e-08
-2.4436421e-08
1.25837064e-07
-2.53254263e-08
1.72409819e-07
-2.39574067e-08
2.16701328e-07
-2.02148299e-08
2.5577707e-07
-1.5503413e-08
2.88818192e-07
-1.1022032e-08
3.15904579e-07
-7.22507858e-09
3.37159118e-07
-4.11380022e-09
3.52536143e-07
-1.61740399e-09
3.61857825e-07
3.30852444e-10
3.64226933e-07
2.5536554e-09
3.59050243e-07
4.77497787e-09
3.43557614e-07
7.25787853e-09
3.16355915e-07
1.02791828e-08
2.76093486e-07
1.39790683e-08
2.22027202e-07
1.83189e-08
1.54632051e-07
2.2951472e-08
7.60381366e-08
2.71519353e-08
2.67535846e-08
1.34430741e-08
-2.6112133e-08
3.94037284e-08
-5.03969279e-08
6.73781283e-08
-5.32997635e-08
9.1551758e-08
-4.8130921e-08
1.11768034e-07
-4.04310685e-08
1.28663877e-07
-3.23991806e-08
1.42623519e-07
-2.49816478e-08
1.53749126e-07
-1.83506496e-08
1.61946523e-07
-1.23111718e-08
1.66894885e-07
-6.56576375e-09
1.68315725e-07
-1.08995219e-09
1.66437327e-07
4.43204382e-09
1.61283699e-07
9.92866356e-09
1.52130509e-07
1.64110795e-08
1.37925856e-07
2.4483918e-08
1.1769672e-07
3.42082539e-08
9.096114e-08
4.50545794e-08
5.82639636e-08
5.56487568e-08
2.31731978e-08
6.22428166e-08
4.99267871e-08
2.32121934e-08
-4.93242529e-08
3.63230922e-08
-6.35076958e-08
4.21770936e-08
-5.91537174e-08
4.5518666e-08
-5.14723833e-08
4.78127659e-08
-4.27251442e-08
4.98440328e-08
-3.44303765e-08
5.17382133e-08
-2.68758161e-08
5.33072364e-08
-1.99196478e-08
5.42120978e-08
-1.32160222e-08
5.40039507e-08
-6.35763352e-09
5.23328165e-08
5.81201742e-10
4.75341991e-08
9.23062977e-09
4.08046084e-08
1.66583001e-08
3.28069219e-08
2.44087585e-08
2.39520605e-08
3.33388497e-08
1.44081168e-08
4.37522363e-08
4.43054586e-09
5.50322326e-08
-4.99129183e-09
6.50706806e-08
-9.9973724e-09
6.7248984e-08
3.99294173e-08
-1.2185227e-09
-4.81057128e-08
-1.01489325e-08
-5.45771957e-08
-1.97113094e-08
-4.95913514e-08
-2.94155592e-08
-4.17680707e-08
-3.78296311e-08
-3.4311111e-08
-4.47838121e-08
-2.74761776e-08
-5.046353e-08
-2.1196148e-08
-5.51401988e-08
-1.52430067e-08
-5.9090605e-08
-9.26566456e-09
-6.31318939e-08
-2.31640975e-09
-6.64530633e-08
3.90233604e-09
-6.75068262e-08
1.02843187e-08
-6.80446885e-08
1.71961538e-08
-6.83739879e-08
2.47380074e-08
-6.80472231e-08
3.3012098e-08
-6.59670672e-08
4.16720789e-08
-6.03067809e-08
4.93719752e-08
-4.78675009e-08
5.26314416e-08
-2.46079695e-08
4.39894998e-08
1.53214497e-08
-3.03131319e-08
-1.77925597e-08
-6.68914607e-08
-1.79988033e-08
-1.01179389e-07
-1.53034262e-08
-1.30674363e-07
-1.22730615e-08
-1.55566757e-07
-9.4187383e-09
-1.76174404e-07
-6.86852601e-09
-1.92742893e-07
-4.62768511e-09
-2.05350433e-07
-2.63549021e-09
-2.13877505e-07
-7.38616255e-10
-2.17067486e-07
8.73526227e-10
-2.15600981e-07
2.43581613e-09
-2.09386276e-07
4.06956235e-09
-1.97929914e-07
5.73979148e-09
-1.80627652e-07
7.43570654e-09
-1.56777379e-07
9.16183406e-09
-1.25935474e-07
1.08301706e-08
-8.86454081e-08
1.20819281e-08
-4.80100404e-08
1.19961041e-08
-1.29802284e-08
8.95972213e-09
2.34122244e-09
-5.11287279e-08
3.33361871e-08
-1.04399568e-07
3.52720675e-08
-1.5216227e-07
3.24592854e-08
-1.9290053e-07
2.84652174e-08
-2.26474616e-07
2.41553517e-08
-2.52932322e-07
1.95891883e-08
-2.72351058e-07
1.47910535e-08
-2.84792565e-07
9.80601624e-09
-2.9013128e-07
4.60010363e-09
-2.8862729e-07
-6.30470949e-10
-2.81514488e-07
-4.67697773e-09
-2.6862824e-07
-8.81669645e-09
-2.49348723e-07
-1.3539713e-08
-2.22815115e-07
-1.90979072e-08
-1.88293222e-07
-2.53600443e-08
-1.45805451e-07
-3.16575946e-08
-9.71174126e-08
-3.66060945e-08
-4.77432442e-08
-3.73780461e-08
-1.00254184e-08
-2.87580835e-08
-7.68419601e-09
-1.13656199e-08
4.47018276e-08
-3.09267677e-08
5.48332225e-08
-5.12080846e-08
5.27406249e-08
-6.99091257e-08
4.71662623e-08
-8.57974886e-08
4.0043738e-08
-9.84114859e-08
3.22031859e-08
-1.07506973e-07
2.38865638e-08
-1.13081902e-07
1.53809436e-08
-1.15555781e-07
7.0740069e-09
-1.16153596e-07
-3.26551414e-11
-1.15075563e-07
-5.75499053e-09
-1.14739944e-07
-9.15231058e-09
-1.15021983e-07
-1.32576592e-08
-1.13519368e-07
-2.06005133e-08
-1.07751623e-07
-3.11277823e-08
-9.63308168e-08
-4.30783916e-08
-7.84577719e-08
-5.4479142e-08
-5.35478844e-08
-6.22879362e-08
-2.28107251e-08
-5.94952446e-08
-3.04949219e-08
1.43516483e-08
3.03501566e-08
1.95325869e-08
4.96522556e-08
2.18392984e-08
5.0433891e-08
2.32532779e-08
4.57522488e-08
2.40909001e-08
3.92060931e-08
2.4345206e-08
3.19488399e-08
2.37660477e-08
2.44656991e-08
2.21269201e-08
1.70200273e-08
1.9271744e-08
9.92916222e-09
1.53452421e-08
3.893803e-09
9.46791319e-09
1.22318355e-10
3.37065451e-09
-3.05508948e-09
-2.60309744e-09
-7.28392742e-09
-8.15745632e-09
-1.50461797e-08
-1.34904209e-08
-2.57948387e-08
-1.8552342e-08
-3.80164802e-08
-2.2924151e-08
-5.01073562e-08
-2.50437936e-08
-6.01683097e-08
-1.95924094e-08
-6.49466438e-08
-5.00873317e-08
1.0095346e-08
2.02548033e-08
3.25005818e-08
2.7247013e-08
5.89025307e-08
2.40319323e-08
8.17729e-08
2.28818668e-08
1.00084968e-07
2.08940132e-08
1.14225032e-07
1.7808757e-08
1.24295314e-07
1.43954044e-08
1.30253065e-07
1.10622523e-08
1.32320513e-07
7.86170267e-09
1.31404272e-07
4.81001622e-09
1.29563107e-07
1.96347282e-09
1.27608461e-07
-1.10047259e-09
1.25843346e-07
-5.51881894e-09
1.21197798e-07
-1.04006554e-08
1.11267438e-07
-1.58644866e-08
9.490368e-08
-2.16527334e-08
7.21427733e-08
-2.73464567e-08
4.43958529e-08
-3.24213946e-08
1.59913742e-08
-3.65421709e-08
-3.40959574e-08
4.29102193e-08
-2.26554176e-08
1.00078647e-07
-2.99214199e-08
1.49745145e-07
-2.5634564e-08
1.95968694e-07
-2.33416852e-08
2.37158675e-07
-2.02959652e-08
2.71403422e-07
-1.64359914e-08
2.98501001e-07
-1.27021698e-08
3.19125172e-07
-9.5619201e-09
3.33958941e-07
-6.97206161e-09
3.43475523e-07
-4.70656623e-09
3.48003657e-07
-2.56465534e-09
3.47302521e-07
-3.99337512e-10
3.38746989e-07
3.03671828e-09
3.208595e-07
7.48683362e-09
2.92391703e-07
1.26033138e-08
2.52513078e-07
1.82258928e-08
2.01133305e-07
2.40333177e-08
1.39091379e-07
2.96205331e-08
6.77866522e-08
3.47625567e-08
3.36906947e-08
9.96697087e-09
-3.26223806e-08
3.06080153e-08
-5.05624719e-08
5.46719877e-08
-4.96985213e-08
7.46074021e-08
-4.32771007e-08
8.95025551e-08
-3.51910988e-08
1.0000351e-07
-2.69369417e-08
1.0651737e-07
-1.92160088e-08
1.09487973e-07
-1.25325133e-08
1.09959595e-07
-7.44366306e-09
1.09612363e-07
-4.35932044e-09
1.10000657e-07
-2.95293226e-09
1.11308806e-07
-1.70747038e-09
1.12090716e-07
2.25481977e-09
1.09265284e-07
1.03122794e-08
1.00633006e-07
2.12355985e-08
8.54780664e-08
3.33808407e-08
6.41934423e-08
4.53179418e-08
3.84660799e-08
5.53478939e-08
1.28088803e-08
6.04197545e-08
4.64995745e-08
1.18163643e-08
-4.44387546e-08
1.41507115e-08
-5.28968298e-08
1.43748399e-08
-4.99226578e-08
1.43528299e-08
-4.32550986e-08
1.43770187e-08
-3.5215295e-08
1.43228062e-08
-2.68827349e-08
1.39116188e-08
-1.88048286e-08
1.28623593e-08
-1.14832583e-08
1.08739817e-08
-5.45529309e-09
7.63342566e-09
-1.11876864e-09
3.54301253e-09
1.13747218e-09
-1.15430324e-09
2.9898411e-09
-6.04338699e-09
7.14389297e-09
-1.09229045e-08
1.51917925e-08
-1.56492886e-08
2.59619716e-08
-2.00612378e-08
3.77927857e-08
-2.37740252e-08
4.9030718e-08
-2.5279969e-08
5.68538284e-08
-1.92703073e-08
5.44100841e-08
2.7229267e-08
-1.76678456e-08
-2.67709074e-08
-4.32330914e-08
-2.73315719e-08
-6.83534184e-08
-2.48023334e-08
-9.00404555e-08
-2.15680529e-08
-1.07020254e-07
-1.82355022e-08
-1.1899072e-07
-1.49122645e-08
-1.26120047e-07
-1.16755085e-08
-1.29006754e-07
-8.59655143e-09
-1.2879507e-07
-5.66698301e-09
-1.27124138e-07
-2.789707e-09
-1.26082649e-07
9.59781201e-11
-1.25750306e-07
2.6574891e-09
-1.24554549e-07
5.94813198e-09
-1.19846738e-07
1.04839716e-08
-1.10138222e-07
1.62534529e-08
-9.506309e-08
2.27176494e-08
-7.46781638e-08
2.86457886e-08
-4.9132591e-08
3.13082536e-08
-2.010125e-08
2.53787406e-08
7.12801696e-09
-5.8874784e-08
3.21038811e-08
-1.19152166e-07
3.29458212e-08
-1.72489019e-07
2.85345216e-08
-2.16993942e-07
2.29368811e-08
-2.52274954e-07
1.70455109e-08
-2.78512022e-07
1.13248127e-08
-2.96194434e-07
6.00690477e-09
-3.05705361e-07
9.14384173e-10
-3.08503904e-07
-2.86843905e-09
-3.04820931e-07
-6.47267394e-09
-2.94776819e-07
-9.9481336e-09
-2.7884925e-07
-1.32700759e-08
-2.56613201e-07
-1.62879166e-08
-2.27230115e-07
-1.88991126e-08
-1.90034766e-07
-2.0941895e-08
-1.45230771e-07
-2.20863451e-08
-9.49274276e-08
-2.16575549e-08
-4.51411448e-08
-1.84780299e-08
-8.52019632e-09
-1.12422093e-08
-1.39217973e-09
-2.3695301e-08
5.57991917e-08
-5.70522524e-08
6.63027816e-08
-8.91760662e-08
6.06583459e-08
-1.16725852e-07
5.04866801e-08
-1.39603187e-07
3.99228566e-08
-1.58468221e-07
3.01898653e-08
-1.74224635e-07
2.17633276e-08
-1.8758599e-07
1.42757601e-08
-1.97361519e-07
6.90709622e-09
-2.02413746e-07
-1.42042599e-09
-2.03486714e-07
-8.87516142e-09
-1.99885476e-07
-1.68712956e-08
-1.91295575e-07
-2.48778161e-08
-1.76940766e-07
-3.32539091e-08
-1.55731759e-07
-4.21509015e-08
-1.26806235e-07
-5.10118657e-08
-9.04133823e-08
-5.80504105e-08
-4.95653138e-08
-5.93261044e-08
-1.35774669e-08
-4.72300631e-08
-1.49696472e-08
4.86597165e-09
5.09332257e-08
-5.06015751e-10
7.16747768e-08
-8.15340896e-09
6.8305745e-08
-1.74089845e-08
5.97422676e-08
-2.66170931e-08
4.91309716e-08
-3.55127833e-08
3.90855724e-08
-4.4069789e-08
3.03203395e-08
-5.2138884e-08
2.23448758e-08
-5.94551988e-08
1.42234151e-08
-6.60534034e-08
5.17780054e-09
-7.02375917e-08
-4.69097177e-09
-7.32191188e-08
-1.38897486e-08
-7.57240133e-08
-2.23729245e-08
-7.77912241e-08
-3.11866842e-08
-7.86075277e-08
-4.13346025e-08
-7.66630966e-08
-5.29562936e-08
-6.99499552e-08
-6.47635594e-08
-5.50855027e-08
-7.41905662e-08
-2.82023261e-08
-7.41132496e-08
-4.31719737e-08
2.47993015e-08
2.61339352e-08
4.30686319e-08
5.34054654e-08
5.34533273e-08
5.7921056e-08
5.92081169e-08
5.39874959e-08
6.16365918e-08
4.6702501e-08
6.23058132e-08
3.84163691e-08
6.21837014e-08
3.04424551e-08
6.14700957e-08
2.30584994e-08
5.98041014e-08
1.5889412e-08
5.65172232e-08
8.46469574e-09
5.05929435e-08
1.23330926e-09
4.3435147e-08
-6.73193792e-09
3.52118036e-08
-1.41495824e-08
2.63339634e-08
-2.23088347e-08
1.70646589e-08
-3.20653008e-08
7.52168975e-09
-4.34133221e-08
-1.96395835e-09
-5.52779165e-08
-1.03859399e-08
-6.57685905e-08
-1.31485056e-08
-7.135069e-08
-5.63204794e-08
1.65819788e-08
9.55196706e-09
5.09441063e-08
1.90433594e-08
8.73280793e-08
2.15370876e-08
1.18634927e-07
2.26806663e-08
1.43201502e-07
2.21359273e-08
1.61277921e-07
2.03399648e-08
1.73759395e-07
1.79609825e-08
1.8149698e-07
1.53209271e-08
1.84983529e-07
1.24028636e-08
1.84329263e-07
9.11897199e-09
1.80055152e-07
5.50742025e-09
1.71614083e-07
1.7091391e-09
1.60720742e-07
-3.25624193e-09
1.47564719e-07
-9.15280722e-09
1.30990958e-07
-1.54915399e-08
1.09735407e-07
-2.21577701e-08
8.32031301e-08
-2.87456411e-08
5.20876457e-08
-3.46531081e-08
1.99635495e-08
-3.92265962e-08
-3.635693e-08
2.87766856e-08
-1.92247082e-08
7.931112e-08
-3.149106e-08
1.30725333e-07
-2.98771194e-08
1.80146708e-07
-2.67406947e-08
2.24326433e-07
-2.20437936e-08
2.61137156e-07
-1.64707444e-08
2.90039423e-07
-1.0941281e-08
3.11319432e-07
-5.95906932e-09
3.25475052e-07
-1.75275387e-09
3.32827107e-07
1.76692767e-09
3.33551505e-07
4.78302453e-09
3.28151197e-07
7.1094561e-09
3.15871921e-07
9.02303552e-09
2.95853706e-07
1.08654143e-08
2.6738546e-07
1.29767064e-08
2.29632248e-07
1.55954449e-08
1.82104055e-07
1.87825508e-08
1.2517733e-07
2.2273615e-08
6.05272908e-08
2.54234406e-08
2.41703606e-08
1.15632348e-08
-3.07879325e-08
3.61363947e-08
-5.60642091e-08
6.50709893e-08
-5.88117042e-08
9.12333106e-08
-5.29030028e-08
1.13402604e-07
-4.42130774e-08
1.31437336e-07
-3.45054601e-08
1.45071959e-07
-2.45758947e-08
1.54055543e-07
-1.49426345e-08
1.5837696e-07
-6.07416373e-09
1.584471e-07
1.69680744e-09
1.54929214e-07
8.30091605e-09
1.48695536e-07
1.33431517e-08
1.40020156e-07
1.76984173e-08
1.28890689e-07
2.19948948e-08
1.14829829e-07
2.70375677e-08
9.69540787e-08
3.34712004e-08
7.44540557e-08
4.12825719e-08
4.73210109e-08
4.94066559e-08
1.8445753e-08
5.42986942e-08
4.26161133e-08
2.92721663e-08
-6.00600883e-08
4.58344976e-08
-7.26265275e-08
5.55605152e-08
-6.85377121e-08
6.35050838e-08
-6.08475553e-08
6.99097447e-08
-5.06177283e-08
7.44653856e-08
-3.90610808e-08
7.68800297e-08
-2.69905289e-08
7.70136067e-08
-1.50761879e-08
7.52683562e-08
-4.32890475e-09
7.05252013e-08
6.43998625e-09
6.32026649e-08
1.56234582e-08
5.41662866e-08
2.23795508e-08
4.42940057e-08
2.75707003e-08
3.41988984e-08
3.20900167e-08
2.42764553e-08
3.69600109e-08
1.47217609e-08
4.30258997e-08
5.61629183e-09
5.03880378e-08
-2.60360025e-09
5.76265429e-08
-7.46239074e-09
5.91574795e-08
3.51537223e-08
-1.01359095e-08
-4.99241687e-08
-2.89174621e-08
-5.38449597e-08
-4.79875585e-08
-4.94676074e-08
-6.5628426e-08
-4.32066714e-08
-8.01366042e-08
-3.6109543e-08
-9.07261205e-08
-2.8471546e-08
-9.72657849e-08
-2.04508577e-08
-1.00292873e-07
-1.20490802e-08
-1.01767697e-07
-2.85407473e-09
-9.97079781e-08
4.38028631e-09
-9.42390621e-08
1.01545457e-08
-8.73941768e-08
1.55346813e-08
-8.03101586e-08
2.04866829e-08
-7.35904324e-08
2.53703008e-08
-6.72353262e-08
3.06049042e-08
-6.05694239e-08
3.63600003e-08
-5.21746088e-08
4.19932199e-08
-3.95373384e-08
4.49892681e-08
-1.94715542e-08
3.90916905e-08
1.56821678e-08
-4.93543404e-08
-1.02627708e-07
-1.51521972e-07
-1.94153533e-07
-2.29686215e-07
-2.57579131e-07
-2.77449611e-07
-2.88916542e-07
-2.91186721e-07
-2.86220769e-07
-2.75478809e-07
-2.59354945e-07
-2.38277331e-07
-2.12314332e-07
-1.81114979e-07
-1.44158766e-07
-1.0156758e-07
-5.59785881e-08
-1.62854147e-08
)
;

boundaryField
{
    inner_wall
    {
        type            calculated;
        value           uniform 0;
    }
    outer_wall
    {
        type            calculated;
        value           uniform 0;
    }
    top
    {
        type            calculated;
        value           nonuniform List<scalar> 
20
(
-5.69820265e-10
-5.71579562e-10
-5.73338859e-10
-5.75098156e-10
-5.76857453e-10
-5.7861675e-10
-5.80376047e-10
-5.82135344e-10
-5.83894641e-10
-5.85653938e-10
-5.87413235e-10
-5.89172532e-10
-5.90931829e-10
-5.92691126e-10
-5.94450423e-10
-5.9620972e-10
-5.97969017e-10
-5.99728314e-10
-6.01487611e-10
-6.03246908e-10
)
;
    }
    bottom
    {
        type            calculated;
        value           nonuniform List<scalar> 
20
(
-1.99266421e-08
-1.9772957e-08
-2.07020326e-08
-2.04482257e-08
-2.0110954e-08
-1.97938196e-08
-1.96438543e-08
-1.96924989e-08
-1.97348364e-08
-1.92846391e-08
-1.73910479e-08
-1.24436297e-08
-1.78816352e-09
1.24696244e-08
2.6140588e-08
3.72320637e-08
4.46245686e-08
4.77929449e-08
4.53645978e-08
2.88385411e-08
)
;
    }
    front
    {
        type            wedge;
        value           nonuniform List<scalar> 
800
(
-4.93616332e-08
-8.76039657e-08
-9.39337704e-08
-1.03197992e-07
-1.13763972e-07
-1.07589743e-07
-9.68504727e-08
-9.4051548e-08
-9.89082274e-08
-1.05480751e-07
-1.09417151e-07
-1.11040639e-07
-1.11109431e-07
-1.13673643e-07
-1.1707823e-07
-1.13306328e-07
-1.1212061e-07
-1.23806372e-07
-1.16519977e-07
-1.07848203e-07
-9.26810143e-08
-8.37865544e-08
-7.91445221e-08
-8.69512372e-08
-1.01804724e-07
-1.11870516e-07
-1.23173601e-07
-1.10560841e-07
-1.00096503e-07
-8.51148766e-08
-7.74449219e-08
-8.33751398e-08
-9.38399099e-08
-1.08617267e-07
-1.1902496e-07
-1.24267257e-07
-1.11901168e-07
-9.82754621e-08
-7.06830504e-08
-4.06011698e-08
-1.03286731e-08
-2.87631246e-08
-3.48749627e-08
-5.15377655e-08
-7.69760998e-08
-7.46015607e-08
-5.54926121e-08
-4.46255645e-08
-4.72582595e-08
-5.7209391e-08
-6.74064261e-08
-7.48164131e-08
-7.80092491e-08
-8.25222471e-08
-9.08328427e-08
-8.79516416e-08
-8.57924575e-08
-1.10840419e-07
-9.00487154e-08
-7.4123144e-08
-5.88588305e-08
-5.45612622e-08
-5.09991134e-08
-5.36111559e-08
-6.50543468e-08
-8.07991676e-08
-1.07673016e-07
-7.87462678e-08
-6.42981253e-08
-5.4115452e-08
-5.12018779e-08
-5.50432829e-08
-5.96441044e-08
-7.42190388e-08
-9.50758774e-08
-1.09868465e-07
-7.83049396e-08
-5.96741104e-08
-3.91882184e-08
-2.11596008e-08
-1.85784911e-09
-6.34997044e-09
-8.57335015e-09
-1.90393135e-08
-4.15142607e-08
-4.33013315e-08
-3.03883768e-08
-2.15923469e-08
-2.17163155e-08
-2.79325224e-08
-3.61359746e-08
-4.42044481e-08
-5.02939528e-08
-5.67538285e-08
-6.68431118e-08
-6.74916962e-08
-6.87888953e-08
-1.01010033e-07
-7.31259191e-08
-6.06472438e-08
-5.58292647e-08
-5.40646613e-08
-5.02533164e-08
-5.11814621e-08
-5.31132297e-08
-6.40700603e-08
-9.66487701e-08
-6.3135987e-08
-5.48100617e-08
-5.32874536e-08
-5.10846801e-08
-5.5862148e-08
-5.78449857e-08
-6.09151723e-08
-7.90107168e-08
-9.87658189e-08
-6.27999173e-08
-5.56905334e-08
-5.41383797e-08
-3.08603322e-08
-2.37958581e-10
-9.75753511e-10
-1.92743999e-09
-6.05414219e-09
-1.76616422e-08
-2.01478278e-08
-1.55386936e-08
-1.30224711e-08
-1.50778398e-08
-2.04156348e-08
-2.66431269e-08
-3.23395272e-08
-3.71698736e-08
-4.19898124e-08
-4.99476765e-08
-5.24259996e-08
-5.68969459e-08
-9.29987713e-08
-6.43653057e-08
-5.79528143e-08
-5.77111174e-08
-5.5159975e-08
-5.00077283e-08
-5.26934223e-08
-5.21255667e-08
-5.66322916e-08
-8.8755431e-08
-5.70685621e-08
-5.52323225e-08
-5.50867109e-08
-5.08974675e-08
-5.86787864e-08
-6.20844931e-08
-5.92872244e-08
-7.02299172e-08
-9.09023987e-08
-5.93528042e-08
-6.3816319e-08
-6.68466026e-08
-3.87384032e-08
2.08883321e-10
-3.91925946e-10
-2.15444108e-09
-3.90496536e-09
-7.90881062e-09
-1.00434391e-08
-1.06270234e-08
-1.32425542e-08
-1.95509844e-08
-2.71202182e-08
-3.29696806e-08
-3.65974525e-08
-3.84192846e-08
-3.91845755e-08
-4.23119067e-08
-4.34948597e-08
-4.86762317e-08
-8.6760628e-08
-6.0477238e-08
-5.88072772e-08
-5.92264796e-08
-5.61052628e-08
-4.97785672e-08
-5.46523379e-08
-5.43022134e-08
-5.39199028e-08
-8.32406379e-08
-5.53213808e-08
-5.77414054e-08
-5.69152673e-08
-5.06934896e-08
-6.12645322e-08
-6.55442308e-08
-6.14954476e-08
-6.60682389e-08
-8.56737583e-08
-6.09388196e-08
-7.23703393e-08
-7.42813691e-08
-4.49183012e-08
6.13704683e-10
-1.52719886e-09
-5.2778172e-09
-6.68904508e-09
-7.45740112e-09
-9.23515185e-09
-1.22702032e-08
-1.97025659e-08
-3.06103252e-08
-3.8643997e-08
-4.21964222e-08
-4.32245801e-08
-4.31285024e-08
-4.17410167e-08
-4.11653828e-08
-3.97605057e-08
-4.35579768e-08
-8.20939139e-08
-5.90153571e-08
-6.03339534e-08
-6.03827421e-08
-5.69316008e-08
-4.95869341e-08
-5.68486578e-08
-5.70855683e-08
-5.3367841e-08
-7.94916744e-08
-5.52659879e-08
-6.02327605e-08
-5.87029136e-08
-5.04723615e-08
-6.32834537e-08
-6.71940232e-08
-6.39171617e-08
-6.43179036e-08
-8.23055321e-08
-6.37058811e-08
-7.83178552e-08
-7.82213562e-08
-4.96112816e-08
1.08108298e-09
-4.37785039e-09
-1.06700453e-08
-1.20000553e-08
-1.13716696e-08
-1.24985611e-08
-1.7786861e-08
-3.05420178e-08
-4.17451098e-08
-4.54436416e-08
-4.54044001e-08
-4.46376813e-08
-4.42098739e-08
-4.34325514e-08
-4.22148318e-08
-3.90954341e-08
-4.07553629e-08
-7.86468744e-08
-5.86189347e-08
-6.1717451e-08
-6.14130517e-08
-5.76255141e-08
-4.94132299e-08
-5.89634661e-08