/*--------------------------------*- C++ -*----------------------------------*\
| =========                 |                                                 |
| \\      /  F ield         | OpenFOAM: The Open Source CFD Toolbox           |
|  \\    /   O peration     | Version:  2506                                  |
|   \\  /    A nd           | Website:  www.openfoam.com                      |
|    \\/     M anipulation  |                                                 |
\*---------------------------------------------------------------------------*/
// * * * * * * * * * * * * * * * * * * * * * * * * * * * * * * * * * * * * * //
FoamFile
{
    version         2;
    format          ascii;
    arch            "LSB;label=32;scalar=64";
    class           volVectorField;
    location        "5";
    object          U;
}

dimensions      [ 0 1 -1 0 0 0 0 ];

internalField   nonuniform List<vector> 
800
(
(0.020962 0.839398 0.0479091)
(-0.0102532 0.17564 0.0462278)
(-0.00051495 0.0315929 0.0486913)
(-0.00414588 0.0040465 0.0480193)
(-0.00675262 -0.00355208 0.0473482)
(-0.0095676 -0.0104361 0.0468535)
(-0.0124784 -0.0183839 0.0469151)
(-0.015003 -0.0223804 0.0475768)
(-0.0165491 -0.0134175 0.0481784)
(-0.0162118 0.0189939 0.047296)
(-0.0126115 0.0859947 0.0424436)
(-0.00547959 0.200939 0.0296949)
(0.00430077 0.371618 0.00288995)
(0.0136104 0.503599 -0.0320548)
(0.0206951 0.580763 -0.0649208)
(0.0245868 0.614838 -0.0909527)
(0.0252376 0.609133 -0.107527)
(0.022059 0.555591 -0.113496)
(0.0142273 0.426071 -0.105817)
(0.00210323 0.177476 -0.064535)
(0.0822209 1.48971 0.0601725)
(-0.0367695 0.489119 0.0727375)
(0.00175397 0.107982 0.0815405)
(-0.0116547 0.0165928 0.0821955)
(-0.0165684 0.00666473 0.0833239)
(-0.0220817 0.0259701 0.0836937)
(-0.0273356 0.0744457 0.0811054)
(-0.0306374 0.15788 0.0724806)
(-0.0304734 0.272624 0.0551879)
(-0.0260827 0.401156 0.0286515)
(-0.018213 0.514643 -0.00440747)
(-0.00973015 0.588981 -0.0375632)
(-0.00204207 0.631932 -0.0657645)
(0.00491768 0.662431 -0.0902271)
(0.0101075 0.670878 -0.106034)
(0.0129351 0.64747 -0.109986)
(0.0128599 0.587124 -0.101267)
(0.0101252 0.482431 -0.0812)
(0.00531131 0.322542 -0.0524232)
(-0.000148421 0.115637 -0.0188945)
(0.0990669 1.59735 0.0573377)
(-0.0515105 0.593051 0.0794133)
(0.00524568 0.14579 0.0886396)
(-0.0118204 0.0327763 0.0912117)
(-0.0115943 0.0366364 0.0927684)
(-0.0137402 0.0897497 0.0904688)
(-0.0152048 0.181445 0.0811715)
(-0.0143931 0.299715 0.0621703)
(-0.0109795 0.413984 0.0346798)
(-0.0070969 0.487358 0.00481563)
(-0.0060448 0.517636 -0.0210326)
(-0.0044926 0.558378 -0.0471405)
(-0.00106415 0.617373 -0.0745473)
(0.00261604 0.664325 -0.0968146)
(0.00485358 0.672883 -0.108095)
(0.00545397 0.63832 -0.106644)
(0.00458126 0.566936 -0.0942915)
(0.00289759 0.458971 -0.0749251)
(0.000701464 0.303232 -0.0513397)
(-0.00070838 0.104859 -0.0212599)
(0.119815 1.75489 0.0659974)
(-0.0505426 0.876403 0.089741)
(0.00900129 0.323765 0.0912842)
(-0.00331713 0.102951 0.0939432)
(-0.000225741 0.0664042 0.0941665)
(-0.000485299 0.113748 0.089753)
(0.000106488 0.204062 0.0775881)
(0.00160629 0.308046 0.0567662)
(0.00348719 0.389608 0.031076)
(0.00317839 0.43306 0.00566667)
(0.00272889 0.478509 -0.022011)
(0.00612803 0.561712 -0.0551686)
(0.0105254 0.648246 -0.0862742)
(0.0132939 0.696096 -0.106805)
(0.0138581 0.691615 -0.113186)
(0.0126456 0.642631 -0.106066)
(0.010231 0.563312 -0.0886716)
(0.0071114 0.457928 -0.0655437)
(0.00305143 0.310454 -0.0410455)
(-0.00056827 0.111138 -0.0158787)
(0.123325 1.93456 0.0409208)
(-0.0189424 1.30898 0.0812403)
(0.00616244 0.705953 0.0936856)
(0.00818327 0.300337 0.0977075)
(0.00670925 0.13449 0.0966588)
(0.00586055 0.126814 0.0904179)
(0.00562515 0.193376 0.0768593)
(0.00608082 0.276623 0.0563534)
(0.0064314 0.343228 0.0319297)
(0.00693989 0.408276 0.00304202)
(0.0119128 0.518814 -0.0343132)
(0.018225 0.636087 -0.0713788)
(0.0223044 0.709531 -0.0983427)
(0.0231666 0.723107 -0.110756)
(0.0216197 0.685574 -0.108581)
(0.0181944 0.613676 -0.0943786)
(0.0136487 0.522677 -0.0722798)
(0.0087892 0.416896 -0.0471908)
(0.00373947 0.280819 -0.0240973)
(-0.000318105 0.100859 -0.00634659)
(0.114331 1.82957 0.0127345)
(-0.0343735 1.2686 0.0725126)
(0.00455637 0.736342 0.100543)
(-0.0027925 0.342615 0.106541)
(-0.00288064 0.170789 0.103648)
(-0.00335504 0.157044 0.0937689)
(-0.00304624 0.212539 0.0766813)
(-0.0012196 0.288947 0.0522328)
(0.00176916 0.388862 0.0193284)
(0.00986325 0.543645 -0.0237076)
(0.0181728 0.678076 -0.0634299)
(0.0228971 0.748296 -0.0917916)
(0.0242438 0.754529 -0.10643)
(0.0232966 0.713268 -0.107532)
(0.0206954 0.640562 -0.0964102)
(0.0166758 0.550069 -0.0759558)
(0.0118309 0.453357 -0.050866)
(0.00700851 0.352472 -0.0262459)
(0.00260259 0.233024 -0.00685663)
(-0.000167169 0.0824398 0.00257468)
(0.0883539 1.64695 0.0293773)
(-0.0466206 0.943656 0.0844794)
(-0.00379985 0.516757 0.110892)
(-0.0177234 0.264237 0.114834)
(-0.0163568 0.180713 0.107851)
(-0.01612 0.208656 0.0917258)
(-0.0142749 0.302467 0.0652046)
(-0.00932662 0.451883 0.0272045)
(0.000631904 0.639585 -0.0187436)
(0.00746257 0.756601 -0.0562434)
(0.0100627 0.793363 -0.0825179)
(0.0104281 0.77836 -0.0985149)
(0.010047 0.733332 -0.104495)
(0.00953786 0.665091 -0.0994851)
(0.00855882 0.576193 -0.0832735)
(0.00699118 0.475264 -0.0587902)
(0.00479537 0.374986 -0.0322805)
(0.00237598 0.27882 -0.00995873)
(0.000353058 0.176009 0.00425212)
(-0.000252837 0.0602087 0.00670533)
(0.0861197 1.59935 0.0605733)
(-0.0508463 0.758861 0.107014)
(-0.00541264 0.367179 0.124113)
(-0.0220994 0.221448 0.122342)
(-0.0212767 0.225191 0.108622)
(-0.0217838 0.335044 0.0820527)
(-0.0181954 0.519369 0.0430087)
(-0.0111386 0.708356 -0.000561127)
(-0.00945818 0.798044 -0.0351397)
(-0.0120404 0.803394 -0.0606638)
(-0.0138067 0.78508 -0.0814955)
(-0.0143895 0.759279 -0.0972504)
(-0.0138207 0.718342 -0.104906)
(-0.0120505 0.652513 -0.101252)
(-0.00912691 0.559551 -0.0849497)
(-0.005585 0.448702 -0.0585647)
(-0.00247021 0.337575 -0.0294666)
(-0.000818291 0.238242 -0.00678181)
(-0.000416447 0.144719 0.00527844)
(-0.000228372 0.0485605 0.00605846)
(0.10203 1.68194 0.0879176)
(-0.0537021 0.80363 0.133784)
(-0.001546 0.369288 0.142848)
(-0.0212008 0.2564 0.134371)
(-0.0218023 0.332466 0.112399)
(-0.0226438 0.520531 0.0769655)
(-0.0203137 0.709879 0.0367008)
(-0.0228388 0.793054 0.00332192)
(-0.0289114 0.795067 -0.0238432)
(-0.0332341 0.786228 -0.0502143)
(-0.036224 0.78096 -0.075704)
(-0.0378704 0.772784 -0.0978728)
(-0.037592 0.751484 -0.113385)
(-0.0347527 0.705206 -0.118305)
(-0.0290328 0.624793 -0.109166)
(-0.0208971 0.511051 -0.085166)
(-0.0118996 0.379428 -0.0509294)
(-0.00439682 0.254125 -0.0175936)
(-0.000287145 0.147996 0.00229116)
(-1.66843e-05 0.0493182 0.00606914)
(0.119348 1.79371 0.101602)
(-0.0543951 0.97285 0.158479)
(0.00327421 0.474995 0.165042)
(-0.0182679 0.347169 0.151791)
(-0.0188651 0.461181 0.124331)
(-0.0200473 0.657144 0.0877377)
(-0.0228992 0.772772 0.0537926)
(-0.0306003 0.784155 0.0256264)
(-0.037116 0.770525 -0.0024175)
(-0.0424207 0.764934 -0.0319845)
(-0.0471891 0.768133 -0.0622451)
(-0.0510004 0.776949 -0.0919002)
(-0.0530735 0.784319 -0.11852)
(-0.052315 0.77711 -0.138086)
(-0.0476405 0.736918 -0.145049)
(-0.0386575 0.647539 -0.133735)
(-0.026378 0.507827 -0.101749)
(-0.0132565 0.341079 -0.0550881)
(-0.00275025 0.186028 -0.0117586)
(0.00012307 0.0595918 0.00609866)
(0.124895 1.86065 0.102245)
(-0.0497507 1.14625 0.175932)
(0.00789906 0.614495 0.185635)
(-0.013011 0.453068 0.170963)
(-0.0118792 0.560652 0.142005)
(-0.0135589 0.717553 0.107974)
(-0.0189585 0.772105 0.0786809)
(-0.0260771 0.75556 0.0520931)
(-0.0315468 0.73467 0.0237153)
(-0.0367583 0.725157 -0.0069097)
(-0.041877 0.726506 -0.0391359)
(-0.0469267 0.738839 -0.0727285)
(-0.0515248 0.762623 -0.10724)
(-0.0546101 0.79301 -0.140636)
(-0.0544874 0.811908 -0.167842)
(-0.0494376 0.786838 -0.180134)
(-0.0389057 0.684783 -0.167001)
(-0.0244914 0.499699 -0.122256)
(-0.00957896 0.274989 -0.0554587)
(-0.000402406 0.0813173 -0.00227894)
(0.121907 1.88825 0.092513)
(-0.0401597 1.27226 0.180408)
(0.0106984 0.7517 0.200034)
(-0.00507665 0.549936 0.18741)
(-0.00206396 0.622342 0.158851)
(-0.00471548 0.735037 0.127237)
(-0.00965375 0.759067 0.0997248)
(-0.0147695 0.734498 0.0732999)
(-0.018669 0.710098 0.0450805)
(-0.0222965 0.696071 0.0151576)
(-0.0259767 0.690525 -0.0159955)
(-0.0301125 0.691153 -0.0482368)
(-0.0351253 0.702472 -0.0826743)
(-0.0405353 0.735519 -0.120812)
(-0.0449233 0.792138 -0.161449)
(-0.0458376 0.845294 -0.197601)
(-0.0409005 0.834011 -0.214919)
(-0.0303407 0.693073 -0.194049)
(-0.0171232 0.417258 -0.123008)
(-0.00286729 0.111638 -0.0252409)
(0.118755 1.88942 0.0812144)
(-0.035749 1.32655 0.173349)
(0.0138397 0.855252 0.203512)
(0.00432635 0.632076 0.196583)
(0.00615823 0.653323 0.17029)
(0.00551761 0.733403 0.140662)
(0.00219554 0.751792 0.113778)
(-0.00108878 0.7286 0.0871336)
(-0.00376765 0.706279 0.0583301)
(-0.00604304 0.69669 0.0278157)
(-0.008072 0.693876 -0.00266417)
(-0.0111108 0.687221 -0.0321578)
(-0.0154744 0.676822 -0.0616513)
(-0.0208848 0.677619 -0.095437)
(-0.0268518 0.717321 -0.136646)
(-0.0316283 0.805713 -0.183984)
(-0.032093 0.893653 -0.227155)
(-0.0269155 0.864536 -0.24186)
(-0.019443 0.606362 -0.192817)
(-0.00825032 0.168565 -0.0635901)
(0.118727 1.93303 0.0645219)
(-0.0262782 1.4033 0.15212)
(0.0156548 0.965103 0.191623)
(0.0173952 0.71404 0.195051)
(0.0177587 0.666337 0.175108)
(0.0187881 0.709809 0.147768)
(0.0177437 0.738574 0.120932)
(0.015795 0.733499 0.0943852)
(0.0137806 0.717387 0.0663154)
(0.0117315 0.706637 0.0366734)
(0.00921527 0.702603 0.00696564)
(0.00580516 0.698945 -0.0198539)
(0.00188255 0.685679 -0.045062)
(-0.00253659 0.664984 -0.0748483)
(-0.0077852 0.668204 -0.11179)
(-0.0133767 0.736618 -0.15826)
(-0.0168553 0.870653 -0.211797)
(-0.0164988 0.965144 -0.254745)
(-0.0133331 0.809026 -0.244295)
(-0.0132436 0.279119 -0.114775)
(0.118071 1.99092 0.0298193)
(-0.0119311 1.54462 0.108521)
(0.0157834 1.13667 0.161077)
(0.0288057 0.849364 0.180031)
(0.0311099 0.719517 0.172708)
(0.0333303 0.70002 0.152336)
(0.0348144 0.717866 0.128241)
(0.0348639 0.730758 0.103729)
(0.0338807 0.731456 0.0790747)
(0.032061 0.726068 0.0543618)
(0.0292728 0.718644 0.0303193)
(0.0260381 0.706891 0.00669817)
(0.0220062 0.684914 -0.0214698)
(0.0172657 0.660369 -0.0546332)
(0.0117933 0.657161 -0.0918064)
(0.00600939 0.710737 -0.136558)
(0.00103768 0.84141 -0.190026)
(-0.00341582 0.998938 -0.24229)
(-0.00206818 0.977186 -0.264048)
(-0.0127091 0.438898 -0.168306)
(0.118638 1.92678 0.00520562)
(-0.0360641 1.49562 0.0718185)
(0.011864 1.1477 0.12327)
(0.0204441 0.891508 0.145151)
(0.0264047 0.739633 0.145449)
(0.0341427 0.67613 0.132598)
(0.0400475 0.664821 0.113566)
(0.0432855 0.672181 0.0924437)
(0.044657 0.679465 0.0708659)
(0.0446981 0.680552 0.0491944)
(0.0435374 0.67521 0.0271348)
(0.0413527 0.664771 0.0031848)
(0.0385514 0.653026 -0.022028)
(0.0345799 0.647415 -0.0483316)
(0.0298765 0.671514 -0.079884)
(0.0250511 0.748783 -0.120921)
(0.0200205 0.879866 -0.169272)
(0.0124259 1.02845 -0.215114)
(0.00947224 1.09029 -0.244125)
(-0.0047165 0.618244 -0.195611)
(0.108372 1.90662 0.051564)
(-0.0528732 1.45891 0.0851248)
(0.00910905 1.16976 0.0993172)
(0.01298 0.967537 0.11313)
(0.0261958 0.827743 0.11769)
(0.0421558 0.740707 0.113172)
(0.0559272 0.693048 0.103041)
(0.0664728 0.670394 0.0902651)
(0.0741936 0.661581 0.0762389)
(0.0796779 0.659979 0.0610259)
(0.0832181 0.662766 0.044208)
(0.084918 0.669702 0.0253079)
(0.0836379 0.683172 0.00349767)
(0.0817056 0.723509 -0.0226632)
(0.078223 0.793961 -0.0533284)
(0.0719785 0.890346 -0.0873294)
(0.0618872 1.00071 -0.121662)
(0.0462778 1.10619 -0.151757)
(0.0317477 1.17148 -0.17147)
(0.0115667 0.776846 -0.151506)
(0.108648 2.10534 0.0190142)
(0.0218186 1.88485 0.0119501)
(0.0443726 1.71768 0.00174668)
(0.0861402 1.58145 -1.29617e-05)
(0.117378 1.47537 0.00286899)
(0.140829 1.39601 0.00692156)
(0.160971 1.3374 0.0105413)
(0.178396 1.29412 0.0130939)
(0.192399 1.26242 0.0143218)
(0.202666 1.23993 0.0141161)
(0.209349 1.22529 0.012468)
(0.212162 1.21663 0.00945629)
(0.211094 1.21384 0.00514456)
(0.204789 1.21329 -0.00021142)
(0.192296 1.21422 -0.00628279)
(0.172773 1.21634 -0.0126041)
(0.145907 1.21966 -0.0185778)
(0.110709 1.22298 -0.0235166)
(0.0738525 1.23747 -0.0270911)
(0.0307102 0.872744 -0.0253055)
(0.111752 1.98143 -0.0585882)
(-0.0087906 1.53128 -0.121046)
(0.0206005 1.24351 -0.132044)
(0.0486304 1.09454 -0.123499)
(0.0619181 1.02842 -0.107116)
(0.0710675 1.00356 -0.0880321)
(0.0798456 0.996819 -0.0693567)
(0.0874731 0.996988 -0.0526326)
(0.0931206 0.998979 -0.0381354)
(0.0967434 1.00055 -0.0254768)
(0.0980533 1.00048 -0.0140787)
(0.0976818 1.00379 -0.00276206)
(0.0954333 1.0131 0.00954663)
(0.0911167 1.03055 0.0237817)
(0.0844012 1.0579 0.0406183)
(0.0747128 1.09533 0.0600541)
(0.0617873 1.14 0.0810234)
(0.0447783 1.18498 0.100701)
(0.0318503 1.19509 0.114398)
(0.00781176 0.74012 0.10223)
(0.101669 1.83397 -0.103978)
(-0.0075834 1.26047 -0.162563)
(0.018156 1.03131 -0.159723)
(0.0273632 0.985492 -0.139469)
(0.0281872 1.00002 -0.114744)
(0.0286772 1.02598 -0.0907387)
(0.0298976 1.04951 -0.0692456)
(0.031048 1.06782 -0.050019)
(0.0317688 1.08028 -0.0319185)
(0.0320039 1.08561 -0.0137298)
(0.0315416 1.08107 0.00482001)
(0.0296934 1.06137 0.0210239)
(0.025523 1.03439 0.0361024)
(0.0205026 1.01848 0.0528333)
(0.0157202 1.03041 0.0737108)
(0.0110393 1.07339 0.0995175)
(0.0060265 1.13725 0.129223)
(0.000606798 1.19407 0.160375)
(0.00173657 1.10251 0.18064)
(-0.0110172 0.517659 0.129853)
(0.078407 1.57605 -0.140188)
(-0.0366083 1.0009 -0.163859)
(-0.00053614 0.949381 -0.147759)
(-0.0162271 0.981382 -0.126608)
(-0.0204291 1.00715 -0.106593)
(-0.0248964 1.02681 -0.0890762)
(-0.0285378 1.04433 -0.0735417)
(-0.0314402 1.0611 -0.0589747)
(-0.0337678 1.07683 -0.0441094)
(-0.0357291 1.0901 -0.0272148)
(-0.037855 1.09896 -0.00668942)
(-0.0388344 1.1037 0.0152234)
(-0.0394248 1.10922 0.0370661)
(-0.0397165 1.12189 0.0608449)
(-0.039493 1.14413 0.0878705)
(-0.0381388 1.16783 0.117966)
(-0.0346838 1.16617 0.147959)
(-0.0281622 1.07905 0.168332)
(-0.0201553 0.800813 0.15625)
(-0.0140935 0.265697 0.0732094)
(0.0452167 1.4248 -0.0838954)
(-0.0514919 0.927818 -0.0915422)
(-0.0500774 0.919373 -0.0794903)
(-0.0705958 0.937999 -0.0626575)
(-0.0859419 0.954074 -0.0455999)
(-0.0990602 0.968126 -0.0291881)
(-0.109713 0.979926 -0.0138296)
(-0.11806 0.989465 0.000425029)
(-0.123868 0.996607 0.013674)
(-0.126838 1.00112 0.026139)
(-0.126932 1.00308 0.0382752)
(-0.124327 1.00229 0.0508194)
(-0.118871 0.997409 0.0639426)
(-0.110152 0.985789 0.0775225)
(-0.0975592 0.962021 0.0910391)
(-0.0806335 0.915601 0.102861)
(-0.0600518 0.827995 0.109108)
(-0.0380911 0.671967 0.102175)
(-0.0183914 0.425113 0.0712098)
(-0.00313527 0.11941 0.0144836)
(0.0323746 1.34586 0.0187251)
(-0.0642565 0.867244 0.0193593)
(-0.0771766 0.854561 0.0163309)
(-0.104987 0.850385 0.0119284)
(-0.126021 0.846488 0.00697351)
(-0.143367 0.843229 0.00159707)
(-0.156427 0.840276 -0.00397262)
(-0.165281 0.837414 -0.00947664)
(-0.169799 0.834411 -0.0146381)
(-0.170268 0.830908 -0.0193165)
(-0.167176 0.825701 -0.0237086)
(-0.160918 0.81648 -0.0282411)
(-0.151123 0.802044 -0.0330093)
(-0.137339 0.779469 -0.0380207)
(-0.118905 0.744087 -0.0428992)
(-0.0955608 0.68833 -0.0466298)
(-0.0684174 0.600938 -0.0471978)
(-0.0406831 0.468679 -0.0412045)
(-0.0164959 0.286269 -0.0245751)
(-0.000754751 0.0821402 -0.00016049)
(0.0616133 1.47861 0.109694)
(-0.0403105 0.911662 0.124156)
(-0.020757 0.870344 0.117116)
(-0.0378505 0.896055 0.105061)
(-0.0473585 0.929367 0.0909369)
(-0.0557101 0.966716 0.0755384)
(-0.0617193 1.00268 0.0591126)
(-0.0654426 1.03212 0.0420071)
(-0.066934 1.05127 0.0245351)
(-0.0670857 1.05835 0.00689066)
(-0.0670936 1.05601 -0.0105562)
(-0.06702 1.05474 -0.0272627)
(-0.0672862 1.05841 -0.0461702)
(-0.0668432 1.06907 -0.0687737)
(-0.0642745 1.08381 -0.0947902)
(-0.0584334 1.08966 -0.121605)
(-0.0485191 1.0579 -0.144003)
(-0.0353161 0.93687 -0.151855)
(-0.0226889 0.656722 -0.126679)
(-0.0105469 0.204024 -0.0475668)
(0.0944017 1.7312 0.105979)
(-0.0178623 1.10625 0.149371)
(0.0124243 0.903194 0.145756)
(0.0145577 0.886399 0.129795)
(0.0132424 0.923413 0.108707)
(0.0136004 0.970744 0.0855804)
(0.0141017 1.01428 0.0616882)
(0.0140281 1.04679 0.037528)
(0.0133659 1.06171 0.0139694)
(0.0117875 1.05258 -0.00593027)
(0.00883331 1.01956 -0.0159405)
(0.00327477 0.966335 -0.017727)
(-0.000954901 0.92362 -0.0225761)
(-0.00415147 0.921955 -0.0402281)
(-0.00678052 0.963885 -0.069395)
(-0.00867805 1.03239 -0.104032)
(-0.010459 1.10538 -0.139328)
(-0.0105865 1.13588 -0.169827)
(-0.00837354 0.993496 -0.179879)
(-0.0130936 0.442402 -0.118082)
(0.109225 1.90237 0.0800863)
(-0.0165896 1.374 0.132921)
(0.0201971 1.08952 0.133938)
(0.044003 0.963036 0.124163)
(0.054949 0.916912 0.110312)
(0.0632314 0.907524 0.09382)
(0.070446 0.912795 0.0764784)
(0.0754528 0.9217 0.0597816)
(0.0778004 0.928742 0.0445025)
(0.0778888 0.931975 0.0308763)
(0.0762892 0.932382 0.0183095)
(0.0741509 0.934828 0.00492059)
(0.0728674 0.94643 -0.010862)
(0.0714277 0.970065 -0.0298774)
(0.0679931 1.00585 -0.0517959)
(0.0610571 1.05034 -0.0752354)
(0.050305 1.09715 -0.0977906)
(0.0351196 1.14158 -0.116329)
(0.0249677 1.15212 -0.128888)
(0.00459768 0.701507 -0.112352)
(0.105964 2.09458 -0.00291914)
(0.0335175 1.83099 -0.00501104)
(0.0559709 1.64352 -0.00461919)
(0.0998919 1.50929 -0.003512)
(0.1313 1.41551 -0.00232171)
(0.15226 1.35176 -0.00136904)
(0.168762 1.30855 -0.000850185)
(0.182324 1.2788 -0.000840383)
(0.192488 1.25797 -0.00129159)
(0.199121 1.24343 -0.00207163)
(0.202542 1.23357 -0.00304166)
(0.203182 1.22741 -0.00407635)
(0.200113 1.22238 -0.0049797)
(0.192252 1.21767 -0.00564149)
(0.178723 1.21311 -0.00600325)
(0.158882 1.2087 -0.00601087)
(0.13273 1.20454 -0.00557927)
(0.0997362 1.2001 -0.00463215)
(0.0663239 1.20124 -0.00305499)
(0.0273536 0.821662 -0.000635273)
(0.108091 1.8801 -0.0871337)
(-0.0181834 1.33909 -0.138537)
(0.0199981 1.07363 -0.135338)
(0.0410308 0.970455 -0.121487)
(0.0495937 0.940744 -0.104129)
(0.0559315 0.939802 -0.0851284)
(0.0611717 0.947504 -0.0666594)
(0.0642523 0.955342 -0.0503673)
(0.0650954 0.960414 -0.0367651)
(0.0646027 0.96273 -0.02532)
(0.0640829 0.963442 -0.0148144)
(0.0634959 0.96274 -0.00363201)
(0.0638003 0.967434 0.0101295)
(0.0639495 0.983718 0.027256)
(0.0615964 1.01313 0.0474891)
(0.0553197 1.05312 0.0695692)
(0.0451739 1.09821 0.0913427)
(0.0311155 1.14369 0.110148)
(0.0224384 1.14689 0.124376)
(0.0025249 0.682777 0.109704)
(0.0912004 1.70215 -0.109895)
(-0.0210307 1.09339 -0.14782)
(0.00982792 0.932049 -0.139967)
(0.00926671 0.93923 -0.119864)
(0.00761535 0.981897 -0.095112)
(0.00800831 1.02426 -0.0698281)
(0.00861537 1.05765 -0.0462036)
(0.00875876 1.07871 -0.0257904)
(0.00824907 1.08479 -0.0108289)
(0.00659 1.074 -0.00406134)
(0.00395862 1.04847 -0.00531339)
(0.00075338 1.01312 -0.00808355)
(-0.00314931 0.978105 -0.00109857)
(-0.00632375 0.968337 0.0221698)
(-0.0082112 0.997209 0.0553655)
(-0.00974283 1.05369 0.0918943)
(-0.0110879 1.11478 0.127959)
(-0.0107952 1.12968 0.158654)
(-0.00894018 0.967919 0.168527)
(-0.0134416 0.417795 0.108988)
(0.0536545 1.44738 -0.100601)
(-0.0439289 0.920237 -0.110569)
(-0.0315363 0.906157 -0.101666)
(-0.0492025 0.936753 -0.0876692)
(-0.0598024 0.967848 -0.0719159)
(-0.0680775 0.998247 -0.0557576)
(-0.073151 1.02509 -0.0399355)
(-0.0754468 1.04645 -0.0250038)
(-0.075465 1.06142 -0.011198)
(-0.0743282 1.06984 0.00156788)
(-0.0735727 1.07228 0.0138925)
(-0.0737709 1.07067 0.0268626)
(-0.0734396 1.0701 0.0420299)
(-0.0714372 1.07188 0.0608953)
(-0.0666375 1.07559 0.0835622)
(-0.0585562 1.07074 0.107756)
(-0.0468358 1.03064 0.128586)
(-0.0329394 0.905741 0.13638)
(-0.0207397 0.629685 0.113524)
(-0.00928353 0.193993 0.0411109)
(0.0258547 1.31696 0.00693402)
(-0.0691034 0.870692 0.00729464)
(-0.0881885 0.868699 0.00513462)
(-0.118658 0.865515 0.00282426)
(-0.141211 0.862046 0.000381175)
(-0.158853 0.858286 -0.00186583)
(-0.171068 0.854282 -0.00377614)
(-0.178381 0.850045 -0.00532935)
(-0.181274 0.845266 -0.00654489)
(-0.180367 0.838353 -0.00723085)
(-0.175783 0.828843 -0.00718298)
(-0.167714 0.816006 -0.00606594)
(-0.156236 0.797289 -0.00344299)
(-0.140731 0.770374 0.000973956)
(-0.120628 0.730857 0.00715727)
(-0.0958184 0.671947 0.0145562)
(-0.0675683 0.583737 0.0216433)
(-0.0392236 0.45455 0.0250762)
(-0.0149763 0.279434 0.0192709)
(-0.000283444 0.0826936 0.00220338)
(0.0456389 1.4178 0.114662)
(-0.046719 0.936015 0.127499)
(-0.043811 0.94994 0.113956)
(-0.0630989 0.997837 0.0921989)
(-0.0770183 1.04181 0.0684307)
(-0.0887602 1.07614 0.0449482)
(-0.098563 1.09857 0.0231469)
(-0.106953 1.10974 0.00338485)
(-0.113685 1.11164 -0.0146215)
(-0.117623 1.10932 -0.0315532)
(-0.119066 1.1041 -0.0481099)
(-0.117935 1.09773 -0.0649389)
(-0.114135 1.08895 -0.0818102)
(-0.107203 1.07517 -0.0984389)
(-0.0962789 1.04996 -0.113906)
(-0.0806615 1.00029 -0.125894)
(-0.0609114 0.903604 -0.129539)
(-0.0392506 0.728961 -0.116275)
(-0.0193154 0.455407 -0.0755768)
(-0.00318103 0.1258 -0.0107244)
(0.0803701 1.59575 0.155374)
(-0.030767 1.01425 0.194022)
(0.0046151 0.983658 0.175645)
(-0.00940982 1.05575 0.148463)
(-0.0127664 1.11458 0.120129)
(-0.0177439 1.14264 0.0954975)
(-0.0232695 1.14426 0.0755112)
(-0.0287792 1.1319 0.0579469)
(-0.0335341 1.11768 0.0396254)
(-0.0370302 1.10868 0.0180059)
(-0.0396683 1.1052 -0.00705703)
(-0.0415399 1.10081 -0.0313489)
(-0.0432978 1.09879 -0.0551566)
(-0.0448429 1.10639 -0.0808078)
(-0.0456098 1.1287 -0.109854)
(-0.0446137 1.15986 -0.141573)
(-0.0407363 1.17076 -0.171526)
(-0.0328346 1.0934 -0.188889)
(-0.0233001 0.814169 -0.169926)
(-0.0151123 0.271678 -0.0774342)
(0.101623 1.84704 0.108349)
(-0.00470938 1.2621 0.181809)
(0.0219519 1.03587 0.182696)
(0.0347752 1.00818 0.161038)
(0.0370258 1.04573 0.132301)
(0.0370403 1.08692 0.10346)
(0.0369366 1.11243 0.0777086)
(0.0364896 1.12224 0.054962)
(0.0355297 1.12274 0.0331641)
(0.0340623 1.1199 0.0100473)
(0.0318932 1.11515 -0.0140482)
(0.0282967 1.09949 -0.034799)
(0.0230633 1.07504 -0.0528641)
(0.0171847 1.05335 -0.0715841)
(0.0116593 1.05188 -0.0945746)
(0.00676436 1.08355 -0.122855)
(0.00184065 1.14523 -0.153911)
(-0.0024182 1.2072 -0.183935)
(-0.000435857 1.11703 -0.19984)
(-0.0115908 0.529837 -0.140683)
(0.110706 2.02403 0.0472569)
(-0.00097908 1.61677 0.112205)
(0.026284 1.34358 0.132596)
(0.0612379 1.19426 0.132576)
(0.08011 1.1235 0.122572)
(0.0909942 1.09373 0.107594)
(0.0990849 1.0823 0.0908846)
(0.104958 1.07777 0.0741583)
(0.108171 1.07516 0.0577845)
(0.108739 1.07268 0.0414808)
(0.1069 1.0695 0.0250763)
(0.102689 1.0677 0.00774726)
(0.0965796 1.07113 -0.0113227)
(0.0893622 1.08356 -0.0325938)
(0.080874 1.10652 -0.0559755)
(0.0703511 1.13916 -0.0805248)
(0.0572601 1.17675 -0.104277)
(0.0402913 1.21191 -0.123955)
(0.0285707 1.21321 -0.135718)
(0.00662339 0.740163 -0.117339)
(0.10958 2.11317 -0.0116375)
(0.0190925 1.86832 -0.0201957)
(0.043792 1.67952 -0.0178378)
(0.0897477 1.5458 -0.0122273)
(0.12269 1.45689 -0.00611258)
(0.145274 1.39961 -0.000500761)
(0.163224 1.36262 0.00408658)
(0.177654 1.33809 0.00739263)
(0.187963 1.32149 0.00934819)
(0.193832 1.30954 0.00999266)
(0.195498 1.30023 0.00940797)
(0.19353 1.29319 0.00761404)
(0.187917 1.28756 0.00480138)
(0.178189 1.28256 0.00123469)
(0.163927 1.27802 -0.00280379)
(0.144673 1.27389 -0.00694082)
(0.120318 1.27004 -0.0107294)
(0.0898976 1.26643 -0.0137782)
(0.0611071 1.26221 -0.0158036)
(0.024379 0.837222 -0.0135223)
(0.104358 1.90289 -0.0662919)
(-0.011447 1.33158 -0.13204)
(0.019763 1.06792 -0.14111)
(0.0480383 1.0093 -0.129298)
(0.0626655 1.03627 -0.109365)
(0.0729137 1.08332 -0.0861153)
(0.0818761 1.12381 -0.0625413)
(0.0887236 1.15024 -0.0406224)
(0.0924622 1.16228 -0.0214717)
(0.0932111 1.16478 -0.0055164)
(0.0920568 1.16674 0.00767292)
(0.0889591 1.17023 0.0187881)
(0.0842349 1.17601 0.0288359)
(0.0781691 1.18462 0.0390296)
(0.070762 1.1964 0.0505142)
(0.0616872 1.21118 0.0639195)
(0.050542 1.22741 0.0788336)
(0.0364899 1.24202 0.0932)
(0.027639 1.20948 0.102889)
(0.00434973 0.701352 0.0889673)
(0.0797985 1.67118 -0.13048)
(0.00350598 1.01476 -0.190963)
(0.021689 0.947022 -0.188068)
(0.0362357 1.0852 -0.167754)
(0.0410654 1.23066 -0.14087)
(0.0433715 1.3318 -0.110881)
(0.0452088 1.38907 -0.0795673)
(0.0461407 1.41473 -0.0480347)
(0.0458933 1.42034 -0.0174142)
(0.0444435 1.4087 0.010177)
(0.040433 1.37408 0.0323208)
(0.0347922 1.32437 0.0489785)
(0.0285381 1.26963 0.0613297)
(0.0221559 1.22067 0.0715459)
(0.0159688 1.18866 0.0826002)
(0.0104027 1.18297 0.0974338)
(0.00598053 1.20384 0.117322)
(0.0014292 1.22422 0.140396)
(0.00344383 1.1007 0.155698)
(-0.0116473 0.496035 0.110024)
(0.0348503 1.20197 -0.154255)
(-0.0308828 0.666398 -0.170792)
(-0.0217353 0.920627 -0.15732)
(-0.0348011 1.13673 -0.139012)
(-0.0441428 1.26316 -0.11686)
(-0.0516472 1.33016 -0.0925974)
(-0.05655 1.35897 -0.0673146)
(-0.0586276 1.36569 -0.0416421)
(-0.0584172 1.36306 -0.0161753)
(-0.0580711 1.35864 0.00811331)
(-0.0559209 1.34273 0.0286045)
(-0.0523916 1.31753 0.0451738)
(-0.0484929 1.29146 0.0595832)
(-0.044632 1.27126 0.0739955)
(-0.0407987 1.26007 0.0906233)
(-0.0364096 1.25256 0.110764)
(-0.0305953 1.22512 0.13293)
(-0.023067 1.11884 0.149399)
(-0.0157545 0.8275 0.140068)
(-0.0132886 0.278087 0.0681455)
(-0.00481669 0.690426 -0.0604931)
(-0.0495849 0.359821 -0.0651202)
(-0.0775647 0.524782 -0.0573224)
(-0.104343 0.658749 -0.0458503)
(-0.1272 0.763839 -0.0329883)
(-0.145643 0.843643 -0.0194261)
(-0.159374 0.901349 -0.00569342)
(-0.168132 0.939388 0.00770761)
(-0.171618 0.959419 0.0203127)
(-0.169843 0.963182 0.0317741)
(-0.16452 0.95934 0.042202)
(-0.1561 0.950248 0.051747)
(-0.144863 0.935272 0.0606398)
(-0.130859 0.913021 0.069089)
(-0.113743 0.879467 0.0770308)
(-0.0929887 0.82634 0.0837529)
(-0.0688593 0.738911 0.0870048)
(-0.0436433 0.595406 0.0817832)
(-0.0215039 0.376837 0.0600674)
(-0.00479195 0.105609 0.01747)
)
;

boundaryField
{
    inner_wall
    {
        type            rotatingWallVelocity;
        origin          ( 0 0 0 );
        axis            ( 0 0 1 );
        omega           52.4;
        value           nonuniform List<vector> 40{(0 2.23687 0)};
    }
    outer_wall
    {
        type            rotatingWallVelocity;
        origin          ( 0 0 0 );
        axis            ( 0 0 1 );
        omega           constant 0;
        value           uniform ( 0 0 0 );
    }
    top
    {
        type            fixedValue;
        value           uniform ( 0 0 -0.001462 );
    }
    bottom
    {
        type            inletOutlet;
        inletValue      uniform ( 0 0 0 );
        value           nonuniform List<vector> 
20
(
(0 0 0)
(0 0 0)
(0 0 0)
(0 0 0)
(0 0 0)
(0 0 0)
(0 0 0)
(0 0 0)
(0 0 0)
(0 0 0)
(0 0 0)
(0 0 0)
(0 0 0)
(0.0136104 0.503599 -0.0320548)
(0.0206951 0.580763 -0.0649208)
(0.0245868 0.614838 -0.0909527)
(0.0252376 0.609133 -0.107527)
(0.022059 0.555591 -0.113496)
(0.0142273 0.426071 -0.105817)
(0.00210323 0.177476 -0.064535)
)
;
    }
    front
    {
        type            wedge;
    }
    back
    {
        type            wedge;
    }
}


// ************************************************************************* //
